
     Program PWSCF v.6.7MaX starts on 18Feb2021 at  9:34:24 

     This program is part of the open-source Quantum ESPRESSO suite
     for quantum simulation of materials; please cite
         "P. Giannozzi et al., J. Phys.:Condens. Matter 21 395502 (2009);
         "P. Giannozzi et al., J. Phys.:Condens. Matter 29 465901 (2017);
          URL http://www.quantum-espresso.org", 
     in publications or presentations arising from this work. More details at
     http://www.quantum-espresso.org/quote

     Parallel version (MPI), running on    20 processors

     MPI processes distributed on     1 nodes
     R & G space division:  proc/nbgrp/npool/nimage =      20
     Waiting for input...
     Reading input from standard input

     Current dimensions of program PWSCF are:
     Max number of different atomic species (ntypx) = 10
     Max number of k-points (npk) =  40000
     Max angular momentum in pseudopotentials (lmaxx) =  3
     Message from routine read_pp_mesh:
     mesh size missing, using the one in header
     Message from routine read_pp_mesh:
     mesh size missing, using the one in header

     Subspace diagonalization in iterative solution of the eigenvalue problem:
     a serial algorithm will be used

     Message from routine setup:
     no reason to have ecutrho>4*ecutwfc
     Message from routine setup:
     using ibrav=0 with symmetry is DISCOURAGED, use correct ibrav instead
 
     Parallelization info
     --------------------
     sticks:   dense  smooth     PW     G-vecs:    dense   smooth      PW
     Min         158      52     14                31098     5974     910
     Max         159      53     15                31109     5993     935
     Sum        3163    1049    299               622029   119627   18557
 


     bravais-lattice index     =            0
     lattice parameter (alat)  =       8.0079  a.u.
     unit-cell volume          =    2506.4848 (a.u.)^3
     number of atoms/cell      =            4
     number of atomic types    =            2
     number of electrons       =        60.00
     number of Kohn-Sham states=           60
     kinetic-energy cutoff     =      50.0000  Ry
     charge density cutoff     =     600.0000  Ry
     scf convergence threshold =      1.0E-09
     mixing beta               =       0.7000
     number of iterations used =            8  plain     mixing
     Exchange-correlation= PBE
                           (   1   4   3   4   0   0   0)

     celldm(1)=   8.007887  celldm(2)=   0.000000  celldm(3)=   0.000000
     celldm(4)=   0.000000  celldm(5)=   0.000000  celldm(6)=   0.000000

     crystal axes: (cart. coord. in units of alat)
               a(1) = (   1.000000   0.000000   0.000000 )  
               a(2) = (   0.000000   1.034190   0.000000 )  
               a(3) = (   0.000000   0.000000   4.719662 )  

     reciprocal axes: (cart. coord. in units 2 pi/alat)
               b(1) = (  1.000000  0.000000  0.000000 )  
               b(2) = (  0.000000  0.966940  0.000000 )  
               b(3) = (  0.000000  0.000000  0.211880 )  


     PseudoPot. # 1 for Ge read from file:
     ../../../pseudo/Ge_ONCV_PBE-1.2.upf
     MD5 check sum: 9f45083245c564cb2163622d60d05ca9
     Pseudo is Norm-conserving, Zval = 14.0
     Generated using ONCVPSP code by D. R. Hamann
     Using radial grid of  602 points,  6 beta functions with: 
                l(1) =   0
                l(2) =   0
                l(3) =   1
                l(4) =   1
                l(5) =   2
                l(6) =   2

     PseudoPot. # 2 for Te read from file:
     ../../../pseudo/Te_ONCV_PBE-1.2.upf
     MD5 check sum: dd4de4dac1e38587f63aaf3700bb29d3
     Pseudo is Norm-conserving, Zval = 16.0
     Generated using ONCVPSP code by D. R. Hamann
     Using radial grid of  602 points,  6 beta functions with: 
                l(1) =   0
                l(2) =   0
                l(3) =   1
                l(4) =   1
                l(5) =   2
                l(6) =   2

     atomic species   valence    mass     pseudopotential
        Ge            14.00    72.63000     Ge( 1.00)
        Te            16.00   127.60000     Te( 1.00)

      2 Sym. Ops. (no inversion) found


                                    s                        frac. trans.

      isym =  1     identity                                     

 cryst.   s( 1) = (     1          0          0      )
                  (     0          1          0      )
                  (     0          0          1      )

 cart.    s( 1) = (  1.0000000  0.0000000  0.0000000 )
                  (  0.0000000  1.0000000  0.0000000 )
                  (  0.0000000  0.0000000  1.0000000 )


      isym =  2     inv. 180 deg rotation - cart. axis [1,0,0]   

 cryst.   s( 2) = (    -1          0          0      )
                  (     0          1          0      )
                  (     0          0          1      )

 cart.    s( 2) = ( -1.0000000  0.0000000  0.0000000 )
                  (  0.0000000  1.0000000  0.0000000 )
                  (  0.0000000  0.0000000  1.0000000 )


   Cartesian axes

     site n.     atom                  positions (alat units)
         1           Ge  tau(   1) = (   0.0000000   0.4852822   1.6614487  )
         2           Ge  tau(   2) = (   0.5000000   1.0023560   1.0938804  )
         3           Te  tau(   3) = (   0.5000000   0.0318432   1.7374834  )
         4           Te  tau(   4) = (   0.0000000   0.5488986   1.0178653  )

   Crystallographic axes

     site n.     atom                  positions (cryst. coord.)
         1           Ge  tau(   1) = (  0.0000000  0.4692389  0.3520270  )
         2           Ge  tau(   2) = (  0.5000000  0.9692184  0.2317709  )
         3           Te  tau(   3) = (  0.5000000  0.0307905  0.3681372  )
         4           Te  tau(   4) = (  0.0000000  0.5307522  0.2156648  )

     number of k points=   324 (tetrahedron method)
                       cart. coord. in units 2pi/alat
        k(    1) = (   0.0138889   0.0134297  -0.1059398), wk =   0.0061728
        k(    2) = (   0.0138889   0.0402892  -0.1059398), wk =   0.0061728
        k(    3) = (   0.0138889   0.0671486  -0.1059398), wk =   0.0061728
        k(    4) = (   0.0138889   0.0940081  -0.1059398), wk =   0.0061728
        k(    5) = (   0.0138889   0.1208675  -0.1059398), wk =   0.0061728
        k(    6) = (   0.0138889   0.1477270  -0.1059398), wk =   0.0061728
        k(    7) = (   0.0138889   0.1745864  -0.1059398), wk =   0.0061728
        k(    8) = (   0.0138889   0.2014459  -0.1059398), wk =   0.0061728
        k(    9) = (   0.0138889   0.2283053  -0.1059398), wk =   0.0061728
        k(   10) = (   0.0138889   0.2551648  -0.1059398), wk =   0.0061728
        k(   11) = (   0.0138889   0.2820243  -0.1059398), wk =   0.0061728
        k(   12) = (   0.0138889   0.3088837  -0.1059398), wk =   0.0061728
        k(   13) = (   0.0138889   0.3357432  -0.1059398), wk =   0.0061728
        k(   14) = (   0.0138889   0.3626026  -0.1059398), wk =   0.0061728
        k(   15) = (   0.0138889   0.3894621  -0.1059398), wk =   0.0061728
        k(   16) = (   0.0138889   0.4163215  -0.1059398), wk =   0.0061728
        k(   17) = (   0.0138889   0.4431810  -0.1059398), wk =   0.0061728
        k(   18) = (   0.0138889   0.4700404  -0.1059398), wk =   0.0061728
        k(   19) = (   0.0416667   0.0134297  -0.1059398), wk =   0.0061728
        k(   20) = (   0.0416667   0.0402892  -0.1059398), wk =   0.0061728
        k(   21) = (   0.0416667   0.0671486  -0.1059398), wk =   0.0061728
        k(   22) = (   0.0416667   0.0940081  -0.1059398), wk =   0.0061728
        k(   23) = (   0.0416667   0.1208675  -0.1059398), wk =   0.0061728
        k(   24) = (   0.0416667   0.1477270  -0.1059398), wk =   0.0061728
        k(   25) = (   0.0416667   0.1745864  -0.1059398), wk =   0.0061728
        k(   26) = (   0.0416667   0.2014459  -0.1059398), wk =   0.0061728
        k(   27) = (   0.0416667   0.2283053  -0.1059398), wk =   0.0061728
        k(   28) = (   0.0416667   0.2551648  -0.1059398), wk =   0.0061728
        k(   29) = (   0.0416667   0.2820243  -0.1059398), wk =   0.0061728
        k(   30) = (   0.0416667   0.3088837  -0.1059398), wk =   0.0061728
        k(   31) = (   0.0416667   0.3357432  -0.1059398), wk =   0.0061728
        k(   32) = (   0.0416667   0.3626026  -0.1059398), wk =   0.0061728
        k(   33) = (   0.0416667   0.3894621  -0.1059398), wk =   0.0061728
        k(   34) = (   0.0416667   0.4163215  -0.1059398), wk =   0.0061728
        k(   35) = (   0.0416667   0.4431810  -0.1059398), wk =   0.0061728
        k(   36) = (   0.0416667   0.4700404  -0.1059398), wk =   0.0061728
        k(   37) = (   0.0694444   0.0134297  -0.1059398), wk =   0.0061728
        k(   38) = (   0.0694444   0.0402892  -0.1059398), wk =   0.0061728
        k(   39) = (   0.0694444   0.0671486  -0.1059398), wk =   0.0061728
        k(   40) = (   0.0694444   0.0940081  -0.1059398), wk =   0.0061728
        k(   41) = (   0.0694444   0.1208675  -0.1059398), wk =   0.0061728
        k(   42) = (   0.0694444   0.1477270  -0.1059398), wk =   0.0061728
        k(   43) = (   0.0694444   0.1745864  -0.1059398), wk =   0.0061728
        k(   44) = (   0.0694444   0.2014459  -0.1059398), wk =   0.0061728
        k(   45) = (   0.0694444   0.2283053  -0.1059398), wk =   0.0061728
        k(   46) = (   0.0694444   0.2551648  -0.1059398), wk =   0.0061728
        k(   47) = (   0.0694444   0.2820243  -0.1059398), wk =   0.0061728
        k(   48) = (   0.0694444   0.3088837  -0.1059398), wk =   0.0061728
        k(   49) = (   0.0694444   0.3357432  -0.1059398), wk =   0.0061728
        k(   50) = (   0.0694444   0.3626026  -0.1059398), wk =   0.0061728
        k(   51) = (   0.0694444   0.3894621  -0.1059398), wk =   0.0061728
        k(   52) = (   0.0694444   0.4163215  -0.1059398), wk =   0.0061728
        k(   53) = (   0.0694444   0.4431810  -0.1059398), wk =   0.0061728
        k(   54) = (   0.0694444   0.4700404  -0.1059398), wk =   0.0061728
        k(   55) = (   0.0972222   0.0134297  -0.1059398), wk =   0.0061728
        k(   56) = (   0.0972222   0.0402892  -0.1059398), wk =   0.0061728
        k(   57) = (   0.0972222   0.0671486  -0.1059398), wk =   0.0061728
        k(   58) = (   0.0972222   0.0940081  -0.1059398), wk =   0.0061728
        k(   59) = (   0.0972222   0.1208675  -0.1059398), wk =   0.0061728
        k(   60) = (   0.0972222   0.1477270  -0.1059398), wk =   0.0061728
        k(   61) = (   0.0972222   0.1745864  -0.1059398), wk =   0.0061728
        k(   62) = (   0.0972222   0.2014459  -0.1059398), wk =   0.0061728
        k(   63) = (   0.0972222   0.2283053  -0.1059398), wk =   0.0061728
        k(   64) = (   0.0972222   0.2551648  -0.1059398), wk =   0.0061728
        k(   65) = (   0.0972222   0.2820243  -0.1059398), wk =   0.0061728
        k(   66) = (   0.0972222   0.3088837  -0.1059398), wk =   0.0061728
        k(   67) = (   0.0972222   0.3357432  -0.1059398), wk =   0.0061728
        k(   68) = (   0.0972222   0.3626026  -0.1059398), wk =   0.0061728
        k(   69) = (   0.0972222   0.3894621  -0.1059398), wk =   0.0061728
        k(   70) = (   0.0972222   0.4163215  -0.1059398), wk =   0.0061728
        k(   71) = (   0.0972222   0.4431810  -0.1059398), wk =   0.0061728
        k(   72) = (   0.0972222   0.4700404  -0.1059398), wk =   0.0061728
        k(   73) = (   0.1250000   0.0134297  -0.1059398), wk =   0.0061728
        k(   74) = (   0.1250000   0.0402892  -0.1059398), wk =   0.0061728
        k(   75) = (   0.1250000   0.0671486  -0.1059398), wk =   0.0061728
        k(   76) = (   0.1250000   0.0940081  -0.1059398), wk =   0.0061728
        k(   77) = (   0.1250000   0.1208675  -0.1059398), wk =   0.0061728
        k(   78) = (   0.1250000   0.1477270  -0.1059398), wk =   0.0061728
        k(   79) = (   0.1250000   0.1745864  -0.1059398), wk =   0.0061728
        k(   80) = (   0.1250000   0.2014459  -0.1059398), wk =   0.0061728
        k(   81) = (   0.1250000   0.2283053  -0.1059398), wk =   0.0061728
        k(   82) = (   0.1250000   0.2551648  -0.1059398), wk =   0.0061728
        k(   83) = (   0.1250000   0.2820243  -0.1059398), wk =   0.0061728
        k(   84) = (   0.1250000   0.3088837  -0.1059398), wk =   0.0061728
        k(   85) = (   0.1250000   0.3357432  -0.1059398), wk =   0.0061728
        k(   86) = (   0.1250000   0.3626026  -0.1059398), wk =   0.0061728
        k(   87) = (   0.1250000   0.3894621  -0.1059398), wk =   0.0061728
        k(   88) = (   0.1250000   0.4163215  -0.1059398), wk =   0.0061728
        k(   89) = (   0.1250000   0.4431810  -0.1059398), wk =   0.0061728
        k(   90) = (   0.1250000   0.4700404  -0.1059398), wk =   0.0061728
        k(   91) = (   0.1527778   0.0134297  -0.1059398), wk =   0.0061728
        k(   92) = (   0.1527778   0.0402892  -0.1059398), wk =   0.0061728
        k(   93) = (   0.1527778   0.0671486  -0.1059398), wk =   0.0061728
        k(   94) = (   0.1527778   0.0940081  -0.1059398), wk =   0.0061728
        k(   95) = (   0.1527778   0.1208675  -0.1059398), wk =   0.0061728
        k(   96) = (   0.1527778   0.1477270  -0.1059398), wk =   0.0061728
        k(   97) = (   0.1527778   0.1745864  -0.1059398), wk =   0.0061728
        k(   98) = (   0.1527778   0.2014459  -0.1059398), wk =   0.0061728
        k(   99) = (   0.1527778   0.2283053  -0.1059398), wk =   0.0061728
        k(  100) = (   0.1527778   0.2551648  -0.1059398), wk =   0.0061728
        k(  101) = (   0.1527778   0.2820243  -0.1059398), wk =   0.0061728
        k(  102) = (   0.1527778   0.3088837  -0.1059398), wk =   0.0061728
        k(  103) = (   0.1527778   0.3357432  -0.1059398), wk =   0.0061728
        k(  104) = (   0.1527778   0.3626026  -0.1059398), wk =   0.0061728
        k(  105) = (   0.1527778   0.3894621  -0.1059398), wk =   0.0061728
        k(  106) = (   0.1527778   0.4163215  -0.1059398), wk =   0.0061728
        k(  107) = (   0.1527778   0.4431810  -0.1059398), wk =   0.0061728
        k(  108) = (   0.1527778   0.4700404  -0.1059398), wk =   0.0061728
        k(  109) = (   0.1805556   0.0134297  -0.1059398), wk =   0.0061728
        k(  110) = (   0.1805556   0.0402892  -0.1059398), wk =   0.0061728
        k(  111) = (   0.1805556   0.0671486  -0.1059398), wk =   0.0061728
        k(  112) = (   0.1805556   0.0940081  -0.1059398), wk =   0.0061728
        k(  113) = (   0.1805556   0.1208675  -0.1059398), wk =   0.0061728
        k(  114) = (   0.1805556   0.1477270  -0.1059398), wk =   0.0061728
        k(  115) = (   0.1805556   0.1745864  -0.1059398), wk =   0.0061728
        k(  116) = (   0.1805556   0.2014459  -0.1059398), wk =   0.0061728
        k(  117) = (   0.1805556   0.2283053  -0.1059398), wk =   0.0061728
        k(  118) = (   0.1805556   0.2551648  -0.1059398), wk =   0.0061728
        k(  119) = (   0.1805556   0.2820243  -0.1059398), wk =   0.0061728
        k(  120) = (   0.1805556   0.3088837  -0.1059398), wk =   0.0061728
        k(  121) = (   0.1805556   0.3357432  -0.1059398), wk =   0.0061728
        k(  122) = (   0.1805556   0.3626026  -0.1059398), wk =   0.0061728
        k(  123) = (   0.1805556   0.3894621  -0.1059398), wk =   0.0061728
        k(  124) = (   0.1805556   0.4163215  -0.1059398), wk =   0.0061728
        k(  125) = (   0.1805556   0.4431810  -0.1059398), wk =   0.0061728
        k(  126) = (   0.1805556   0.4700404  -0.1059398), wk =   0.0061728
        k(  127) = (   0.2083333   0.0134297  -0.1059398), wk =   0.0061728
        k(  128) = (   0.2083333   0.0402892  -0.1059398), wk =   0.0061728
        k(  129) = (   0.2083333   0.0671486  -0.1059398), wk =   0.0061728
        k(  130) = (   0.2083333   0.0940081  -0.1059398), wk =   0.0061728
        k(  131) = (   0.2083333   0.1208675  -0.1059398), wk =   0.0061728
        k(  132) = (   0.2083333   0.1477270  -0.1059398), wk =   0.0061728
        k(  133) = (   0.2083333   0.1745864  -0.1059398), wk =   0.0061728
        k(  134) = (   0.2083333   0.2014459  -0.1059398), wk =   0.0061728
        k(  135) = (   0.2083333   0.2283053  -0.1059398), wk =   0.0061728
        k(  136) = (   0.2083333   0.2551648  -0.1059398), wk =   0.0061728
        k(  137) = (   0.2083333   0.2820243  -0.1059398), wk =   0.0061728
        k(  138) = (   0.2083333   0.3088837  -0.1059398), wk =   0.0061728
        k(  139) = (   0.2083333   0.3357432  -0.1059398), wk =   0.0061728
        k(  140) = (   0.2083333   0.3626026  -0.1059398), wk =   0.0061728
        k(  141) = (   0.2083333   0.3894621  -0.1059398), wk =   0.0061728
        k(  142) = (   0.2083333   0.4163215  -0.1059398), wk =   0.0061728
        k(  143) = (   0.2083333   0.4431810  -0.1059398), wk =   0.0061728
        k(  144) = (   0.2083333   0.4700404  -0.1059398), wk =   0.0061728
        k(  145) = (   0.2361111   0.0134297  -0.1059398), wk =   0.0061728
        k(  146) = (   0.2361111   0.0402892  -0.1059398), wk =   0.0061728
        k(  147) = (   0.2361111   0.0671486  -0.1059398), wk =   0.0061728
        k(  148) = (   0.2361111   0.0940081  -0.1059398), wk =   0.0061728
        k(  149) = (   0.2361111   0.1208675  -0.1059398), wk =   0.0061728
        k(  150) = (   0.2361111   0.1477270  -0.1059398), wk =   0.0061728
        k(  151) = (   0.2361111   0.1745864  -0.1059398), wk =   0.0061728
        k(  152) = (   0.2361111   0.2014459  -0.1059398), wk =   0.0061728
        k(  153) = (   0.2361111   0.2283053  -0.1059398), wk =   0.0061728
        k(  154) = (   0.2361111   0.2551648  -0.1059398), wk =   0.0061728
        k(  155) = (   0.2361111   0.2820243  -0.1059398), wk =   0.0061728
        k(  156) = (   0.2361111   0.3088837  -0.1059398), wk =   0.0061728
        k(  157) = (   0.2361111   0.3357432  -0.1059398), wk =   0.0061728
        k(  158) = (   0.2361111   0.3626026  -0.1059398), wk =   0.0061728
        k(  159) = (   0.2361111   0.3894621  -0.1059398), wk =   0.0061728
        k(  160) = (   0.2361111   0.4163215  -0.1059398), wk =   0.0061728
        k(  161) = (   0.2361111   0.4431810  -0.1059398), wk =   0.0061728
        k(  162) = (   0.2361111   0.4700404  -0.1059398), wk =   0.0061728
        k(  163) = (   0.2638889   0.0134297  -0.1059398), wk =   0.0061728
        k(  164) = (   0.2638889   0.0402892  -0.1059398), wk =   0.0061728
        k(  165) = (   0.2638889   0.0671486  -0.1059398), wk =   0.0061728
        k(  166) = (   0.2638889   0.0940081  -0.1059398), wk =   0.0061728
        k(  167) = (   0.2638889   0.1208675  -0.1059398), wk =   0.0061728
        k(  168) = (   0.2638889   0.1477270  -0.1059398), wk =   0.0061728
        k(  169) = (   0.2638889   0.1745864  -0.1059398), wk =   0.0061728
        k(  170) = (   0.2638889   0.2014459  -0.1059398), wk =   0.0061728
        k(  171) = (   0.2638889   0.2283053  -0.1059398), wk =   0.0061728
        k(  172) = (   0.2638889   0.2551648  -0.1059398), wk =   0.0061728
        k(  173) = (   0.2638889   0.2820243  -0.1059398), wk =   0.0061728
        k(  174) = (   0.2638889   0.3088837  -0.1059398), wk =   0.0061728
        k(  175) = (   0.2638889   0.3357432  -0.1059398), wk =   0.0061728
        k(  176) = (   0.2638889   0.3626026  -0.1059398), wk =   0.0061728
        k(  177) = (   0.2638889   0.3894621  -0.1059398), wk =   0.0061728
        k(  178) = (   0.2638889   0.4163215  -0.1059398), wk =   0.0061728
        k(  179) = (   0.2638889   0.4431810  -0.1059398), wk =   0.0061728
        k(  180) = (   0.2638889   0.4700404  -0.1059398), wk =   0.0061728
        k(  181) = (   0.2916667   0.0134297  -0.1059398), wk =   0.0061728
        k(  182) = (   0.2916667   0.0402892  -0.1059398), wk =   0.0061728
        k(  183) = (   0.2916667   0.0671486  -0.1059398), wk =   0.0061728
        k(  184) = (   0.2916667   0.0940081  -0.1059398), wk =   0.0061728
        k(  185) = (   0.2916667   0.1208675  -0.1059398), wk =   0.0061728
        k(  186) = (   0.2916667   0.1477270  -0.1059398), wk =   0.0061728
        k(  187) = (   0.2916667   0.1745864  -0.1059398), wk =   0.0061728
        k(  188) = (   0.2916667   0.2014459  -0.1059398), wk =   0.0061728
        k(  189) = (   0.2916667   0.2283053  -0.1059398), wk =   0.0061728
        k(  190) = (   0.2916667   0.2551648  -0.1059398), wk =   0.0061728
        k(  191) = (   0.2916667   0.2820243  -0.1059398), wk =   0.0061728
        k(  192) = (   0.2916667   0.3088837  -0.1059398), wk =   0.0061728
        k(  193) = (   0.2916667   0.3357432  -0.1059398), wk =   0.0061728
        k(  194) = (   0.2916667   0.3626026  -0.1059398), wk =   0.0061728
        k(  195) = (   0.2916667   0.3894621  -0.1059398), wk =   0.0061728
        k(  196) = (   0.2916667   0.4163215  -0.1059398), wk =   0.0061728
        k(  197) = (   0.2916667   0.4431810  -0.1059398), wk =   0.0061728
        k(  198) = (   0.2916667   0.4700404  -0.1059398), wk =   0.0061728
        k(  199) = (   0.3194444   0.0134297  -0.1059398), wk =   0.0061728
        k(  200) = (   0.3194444   0.0402892  -0.1059398), wk =   0.0061728
        k(  201) = (   0.3194444   0.0671486  -0.1059398), wk =   0.0061728
        k(  202) = (   0.3194444   0.0940081  -0.1059398), wk =   0.0061728
        k(  203) = (   0.3194444   0.1208675  -0.1059398), wk =   0.0061728
        k(  204) = (   0.3194444   0.1477270  -0.1059398), wk =   0.0061728
        k(  205) = (   0.3194444   0.1745864  -0.1059398), wk =   0.0061728
        k(  206) = (   0.3194444   0.2014459  -0.1059398), wk =   0.0061728
        k(  207) = (   0.3194444   0.2283053  -0.1059398), wk =   0.0061728
        k(  208) = (   0.3194444   0.2551648  -0.1059398), wk =   0.0061728
        k(  209) = (   0.3194444   0.2820243  -0.1059398), wk =   0.0061728
        k(  210) = (   0.3194444   0.3088837  -0.1059398), wk =   0.0061728
        k(  211) = (   0.3194444   0.3357432  -0.1059398), wk =   0.0061728
        k(  212) = (   0.3194444   0.3626026  -0.1059398), wk =   0.0061728
        k(  213) = (   0.3194444   0.3894621  -0.1059398), wk =   0.0061728
        k(  214) = (   0.3194444   0.4163215  -0.1059398), wk =   0.0061728
        k(  215) = (   0.3194444   0.4431810  -0.1059398), wk =   0.0061728
        k(  216) = (   0.3194444   0.4700404  -0.1059398), wk =   0.0061728
        k(  217) = (   0.3472222   0.0134297  -0.1059398), wk =   0.0061728
        k(  218) = (   0.3472222   0.0402892  -0.1059398), wk =   0.0061728
        k(  219) = (   0.3472222   0.0671486  -0.1059398), wk =   0.0061728
        k(  220) = (   0.3472222   0.0940081  -0.1059398), wk =   0.0061728
        k(  221) = (   0.3472222   0.1208675  -0.1059398), wk =   0.0061728
        k(  222) = (   0.3472222   0.1477270  -0.1059398), wk =   0.0061728
        k(  223) = (   0.3472222   0.1745864  -0.1059398), wk =   0.0061728
        k(  224) = (   0.3472222   0.2014459  -0.1059398), wk =   0.0061728
        k(  225) = (   0.3472222   0.2283053  -0.1059398), wk =   0.0061728
        k(  226) = (   0.3472222   0.2551648  -0.1059398), wk =   0.0061728
        k(  227) = (   0.3472222   0.2820243  -0.1059398), wk =   0.0061728
        k(  228) = (   0.3472222   0.3088837  -0.1059398), wk =   0.0061728
        k(  229) = (   0.3472222   0.3357432  -0.1059398), wk =   0.0061728
        k(  230) = (   0.3472222   0.3626026  -0.1059398), wk =   0.0061728
        k(  231) = (   0.3472222   0.3894621  -0.1059398), wk =   0.0061728
        k(  232) = (   0.3472222   0.4163215  -0.1059398), wk =   0.0061728
        k(  233) = (   0.3472222   0.4431810  -0.1059398), wk =   0.0061728
        k(  234) = (   0.3472222   0.4700404  -0.1059398), wk =   0.0061728
        k(  235) = (   0.3750000   0.0134297  -0.1059398), wk =   0.0061728
        k(  236) = (   0.3750000   0.0402892  -0.1059398), wk =   0.0061728
        k(  237) = (   0.3750000   0.0671486  -0.1059398), wk =   0.0061728
        k(  238) = (   0.3750000   0.0940081  -0.1059398), wk =   0.0061728
        k(  239) = (   0.3750000   0.1208675  -0.1059398), wk =   0.0061728
        k(  240) = (   0.3750000   0.1477270  -0.1059398), wk =   0.0061728
        k(  241) = (   0.3750000   0.1745864  -0.1059398), wk =   0.0061728
        k(  242) = (   0.3750000   0.2014459  -0.1059398), wk =   0.0061728
        k(  243) = (   0.3750000   0.2283053  -0.1059398), wk =   0.0061728
        k(  244) = (   0.3750000   0.2551648  -0.1059398), wk =   0.0061728
        k(  245) = (   0.3750000   0.2820243  -0.1059398), wk =   0.0061728
        k(  246) = (   0.3750000   0.3088837  -0.1059398), wk =   0.0061728
        k(  247) = (   0.3750000   0.3357432  -0.1059398), wk =   0.0061728
        k(  248) = (   0.3750000   0.3626026  -0.1059398), wk =   0.0061728
        k(  249) = (   0.3750000   0.3894621  -0.1059398), wk =   0.0061728
        k(  250) = (   0.3750000   0.4163215  -0.1059398), wk =   0.0061728
        k(  251) = (   0.3750000   0.4431810  -0.1059398), wk =   0.0061728
        k(  252) = (   0.3750000   0.4700404  -0.1059398), wk =   0.0061728
        k(  253) = (   0.4027778   0.0134297  -0.1059398), wk =   0.0061728
        k(  254) = (   0.4027778   0.0402892  -0.1059398), wk =   0.0061728
        k(  255) = (   0.4027778   0.0671486  -0.1059398), wk =   0.0061728
        k(  256) = (   0.4027778   0.0940081  -0.1059398), wk =   0.0061728
        k(  257) = (   0.4027778   0.1208675  -0.1059398), wk =   0.0061728
        k(  258) = (   0.4027778   0.1477270  -0.1059398), wk =   0.0061728
        k(  259) = (   0.4027778   0.1745864  -0.1059398), wk =   0.0061728
        k(  260) = (   0.4027778   0.2014459  -0.1059398), wk =   0.0061728
        k(  261) = (   0.4027778   0.2283053  -0.1059398), wk =   0.0061728
        k(  262) = (   0.4027778   0.2551648  -0.1059398), wk =   0.0061728
        k(  263) = (   0.4027778   0.2820243  -0.1059398), wk =   0.0061728
        k(  264) = (   0.4027778   0.3088837  -0.1059398), wk =   0.0061728
        k(  265) = (   0.4027778   0.3357432  -0.1059398), wk =   0.0061728
        k(  266) = (   0.4027778   0.3626026  -0.1059398), wk =   0.0061728
        k(  267) = (   0.4027778   0.3894621  -0.1059398), wk =   0.0061728
        k(  268) = (   0.4027778   0.4163215  -0.1059398), wk =   0.0061728
        k(  269) = (   0.4027778   0.4431810  -0.1059398), wk =   0.0061728
        k(  270) = (   0.4027778   0.4700404  -0.1059398), wk =   0.0061728
        k(  271) = (   0.4305556   0.0134297  -0.1059398), wk =   0.0061728
        k(  272) = (   0.4305556   0.0402892  -0.1059398), wk =   0.0061728
        k(  273) = (   0.4305556   0.0671486  -0.1059398), wk =   0.0061728
        k(  274) = (   0.4305556   0.0940081  -0.1059398), wk =   0.0061728
        k(  275) = (   0.4305556   0.1208675  -0.1059398), wk =   0.0061728
        k(  276) = (   0.4305556   0.1477270  -0.1059398), wk =   0.0061728
        k(  277) = (   0.4305556   0.1745864  -0.1059398), wk =   0.0061728
        k(  278) = (   0.4305556   0.2014459  -0.1059398), wk =   0.0061728
        k(  279) = (   0.4305556   0.2283053  -0.1059398), wk =   0.0061728
        k(  280) = (   0.4305556   0.2551648  -0.1059398), wk =   0.0061728
        k(  281) = (   0.4305556   0.2820243  -0.1059398), wk =   0.0061728
        k(  282) = (   0.4305556   0.3088837  -0.1059398), wk =   0.0061728
        k(  283) = (   0.4305556   0.3357432  -0.1059398), wk =   0.0061728
        k(  284) = (   0.4305556   0.3626026  -0.1059398), wk =   0.0061728
        k(  285) = (   0.4305556   0.3894621  -0.1059398), wk =   0.0061728
        k(  286) = (   0.4305556   0.4163215  -0.1059398), wk =   0.0061728
        k(  287) = (   0.4305556   0.4431810  -0.1059398), wk =   0.0061728
        k(  288) = (   0.4305556   0.4700404  -0.1059398), wk =   0.0061728
        k(  289) = (   0.4583333   0.0134297  -0.1059398), wk =   0.0061728
        k(  290) = (   0.4583333   0.0402892  -0.1059398), wk =   0.0061728
        k(  291) = (   0.4583333   0.0671486  -0.1059398), wk =   0.0061728
        k(  292) = (   0.4583333   0.0940081  -0.1059398), wk =   0.0061728
        k(  293) = (   0.4583333   0.1208675  -0.1059398), wk =   0.0061728
        k(  294) = (   0.4583333   0.1477270  -0.1059398), wk =   0.0061728
        k(  295) = (   0.4583333   0.1745864  -0.1059398), wk =   0.0061728
        k(  296) = (   0.4583333   0.2014459  -0.1059398), wk =   0.0061728
        k(  297) = (   0.4583333   0.2283053  -0.1059398), wk =   0.0061728
        k(  298) = (   0.4583333   0.2551648  -0.1059398), wk =   0.0061728
        k(  299) = (   0.4583333   0.2820243  -0.1059398), wk =   0.0061728
        k(  300) = (   0.4583333   0.3088837  -0.1059398), wk =   0.0061728
        k(  301) = (   0.4583333   0.3357432  -0.1059398), wk =   0.0061728
        k(  302) = (   0.4583333   0.3626026  -0.1059398), wk =   0.0061728
        k(  303) = (   0.4583333   0.3894621  -0.1059398), wk =   0.0061728
        k(  304) = (   0.4583333   0.4163215  -0.1059398), wk =   0.0061728
        k(  305) = (   0.4583333   0.4431810  -0.1059398), wk =   0.0061728
        k(  306) = (   0.4583333   0.4700404  -0.1059398), wk =   0.0061728
        k(  307) = (   0.4861111   0.0134297  -0.1059398), wk =   0.0061728
        k(  308) = (   0.4861111   0.0402892  -0.1059398), wk =   0.0061728
        k(  309) = (   0.4861111   0.0671486  -0.1059398), wk =   0.0061728
        k(  310) = (   0.4861111   0.0940081  -0.1059398), wk =   0.0061728
        k(  311) = (   0.4861111   0.1208675  -0.1059398), wk =   0.0061728
        k(  312) = (   0.4861111   0.1477270  -0.1059398), wk =   0.0061728
        k(  313) = (   0.4861111   0.1745864  -0.1059398), wk =   0.0061728
        k(  314) = (   0.4861111   0.2014459  -0.1059398), wk =   0.0061728
        k(  315) = (   0.4861111   0.2283053  -0.1059398), wk =   0.0061728
        k(  316) = (   0.4861111   0.2551648  -0.1059398), wk =   0.0061728
        k(  317) = (   0.4861111   0.2820243  -0.1059398), wk =   0.0061728
        k(  318) = (   0.4861111   0.3088837  -0.1059398), wk =   0.0061728
        k(  319) = (   0.4861111   0.3357432  -0.1059398), wk =   0.0061728
        k(  320) = (   0.4861111   0.3626026  -0.1059398), wk =   0.0061728
        k(  321) = (   0.4861111   0.3894621  -0.1059398), wk =   0.0061728
        k(  322) = (   0.4861111   0.4163215  -0.1059398), wk =   0.0061728
        k(  323) = (   0.4861111   0.4431810  -0.1059398), wk =   0.0061728
        k(  324) = (   0.4861111   0.4700404  -0.1059398), wk =   0.0061728

                       cryst. coord.
        k(    1) = (   0.0138889   0.0138889  -0.5000000), wk =   0.0061728
        k(    2) = (   0.0138889   0.0416667  -0.5000000), wk =   0.0061728
        k(    3) = (   0.0138889   0.0694444  -0.5000000), wk =   0.0061728
        k(    4) = (   0.0138889   0.0972222  -0.5000000), wk =   0.0061728
        k(    5) = (   0.0138889   0.1250000  -0.5000000), wk =   0.0061728
        k(    6) = (   0.0138889   0.1527778  -0.5000000), wk =   0.0061728
        k(    7) = (   0.0138889   0.1805556  -0.5000000), wk =   0.0061728
        k(    8) = (   0.0138889   0.2083333  -0.5000000), wk =   0.0061728
        k(    9) = (   0.0138889   0.2361111  -0.5000000), wk =   0.0061728
        k(   10) = (   0.0138889   0.2638889  -0.5000000), wk =   0.0061728
        k(   11) = (   0.0138889   0.2916667  -0.5000000), wk =   0.0061728
        k(   12) = (   0.0138889   0.3194444  -0.5000000), wk =   0.0061728
        k(   13) = (   0.0138889   0.3472222  -0.5000000), wk =   0.0061728
        k(   14) = (   0.0138889   0.3750000  -0.5000000), wk =   0.0061728
        k(   15) = (   0.0138889   0.4027778  -0.5000000), wk =   0.0061728
        k(   16) = (   0.0138889   0.4305556  -0.5000000), wk =   0.0061728
        k(   17) = (   0.0138889   0.4583333  -0.5000000), wk =   0.0061728
        k(   18) = (   0.0138889   0.4861111  -0.5000000), wk =   0.0061728
        k(   19) = (   0.0416667   0.0138889  -0.5000000), wk =   0.0061728
        k(   20) = (   0.0416667   0.0416667  -0.5000000), wk =   0.0061728
        k(   21) = (   0.0416667   0.0694444  -0.5000000), wk =   0.0061728
        k(   22) = (   0.0416667   0.0972222  -0.5000000), wk =   0.0061728
        k(   23) = (   0.0416667   0.1250000  -0.5000000), wk =   0.0061728
        k(   24) = (   0.0416667   0.1527778  -0.5000000), wk =   0.0061728
        k(   25) = (   0.0416667   0.1805556  -0.5000000), wk =   0.0061728
        k(   26) = (   0.0416667   0.2083333  -0.5000000), wk =   0.0061728
        k(   27) = (   0.0416667   0.2361111  -0.5000000), wk =   0.0061728
        k(   28) = (   0.0416667   0.2638889  -0.5000000), wk =   0.0061728
        k(   29) = (   0.0416667   0.2916667  -0.5000000), wk =   0.0061728
        k(   30) = (   0.0416667   0.3194444  -0.5000000), wk =   0.0061728
        k(   31) = (   0.0416667   0.3472222  -0.5000000), wk =   0.0061728
        k(   32) = (   0.0416667   0.3750000  -0.5000000), wk =   0.0061728
        k(   33) = (   0.0416667   0.4027778  -0.5000000), wk =   0.0061728
        k(   34) = (   0.0416667   0.4305556  -0.5000000), wk =   0.0061728
        k(   35) = (   0.0416667   0.4583333  -0.5000000), wk =   0.0061728
        k(   36) = (   0.0416667   0.4861111  -0.5000000), wk =   0.0061728
        k(   37) = (   0.0694444   0.0138889  -0.5000000), wk =   0.0061728
        k(   38) = (   0.0694444   0.0416667  -0.5000000), wk =   0.0061728
        k(   39) = (   0.0694444   0.0694444  -0.5000000), wk =   0.0061728
        k(   40) = (   0.0694444   0.0972222  -0.5000000), wk =   0.0061728
        k(   41) = (   0.0694444   0.1250000  -0.5000000), wk =   0.0061728
        k(   42) = (   0.0694444   0.1527778  -0.5000000), wk =   0.0061728
        k(   43) = (   0.0694444   0.1805556  -0.5000000), wk =   0.0061728
        k(   44) = (   0.0694444   0.2083333  -0.5000000), wk =   0.0061728
        k(   45) = (   0.0694444   0.2361111  -0.5000000), wk =   0.0061728
        k(   46) = (   0.0694444   0.2638889  -0.5000000), wk =   0.0061728
        k(   47) = (   0.0694444   0.2916667  -0.5000000), wk =   0.0061728
        k(   48) = (   0.0694444   0.3194444  -0.5000000), wk =   0.0061728
        k(   49) = (   0.0694444   0.3472222  -0.5000000), wk =   0.0061728
        k(   50) = (   0.0694444   0.3750000  -0.5000000), wk =   0.0061728
        k(   51) = (   0.0694444   0.4027778  -0.5000000), wk =   0.0061728
        k(   52) = (   0.0694444   0.4305556  -0.5000000), wk =   0.0061728
        k(   53) = (   0.0694444   0.4583333  -0.5000000), wk =   0.0061728
        k(   54) = (   0.0694444   0.4861111  -0.5000000), wk =   0.0061728
        k(   55) = (   0.0972222   0.0138889  -0.5000000), wk =   0.0061728
        k(   56) = (   0.0972222   0.0416667  -0.5000000), wk =   0.0061728
        k(   57) = (   0.0972222   0.0694444  -0.5000000), wk =   0.0061728
        k(   58) = (   0.0972222   0.0972222  -0.5000000), wk =   0.0061728
        k(   59) = (   0.0972222   0.1250000  -0.5000000), wk =   0.0061728
        k(   60) = (   0.0972222   0.1527778  -0.5000000), wk =   0.0061728
        k(   61) = (   0.0972222   0.1805556  -0.5000000), wk =   0.0061728
        k(   62) = (   0.0972222   0.2083333  -0.5000000), wk =   0.0061728
        k(   63) = (   0.0972222   0.2361111  -0.5000000), wk =   0.0061728
        k(   64) = (   0.0972222   0.2638889  -0.5000000), wk =   0.0061728
        k(   65) = (   0.0972222   0.2916667  -0.5000000), wk =   0.0061728
        k(   66) = (   0.0972222   0.3194444  -0.5000000), wk =   0.0061728
        k(   67) = (   0.0972222   0.3472222  -0.5000000), wk =   0.0061728
        k(   68) = (   0.0972222   0.3750000  -0.5000000), wk =   0.0061728
        k(   69) = (   0.0972222   0.4027778  -0.5000000), wk =   0.0061728
        k(   70) = (   0.0972222   0.4305556  -0.5000000), wk =   0.0061728
        k(   71) = (   0.0972222   0.4583333  -0.5000000), wk =   0.0061728
        k(   72) = (   0.0972222   0.4861111  -0.5000000), wk =   0.0061728
        k(   73) = (   0.1250000   0.0138889  -0.5000000), wk =   0.0061728
        k(   74) = (   0.1250000   0.0416667  -0.5000000), wk =   0.0061728
        k(   75) = (   0.1250000   0.0694444  -0.5000000), wk =   0.0061728
        k(   76) = (   0.1250000   0.0972222  -0.5000000), wk =   0.0061728
        k(   77) = (   0.1250000   0.1250000  -0.5000000), wk =   0.0061728
        k(   78) = (   0.1250000   0.1527778  -0.5000000), wk =   0.0061728
        k(   79) = (   0.1250000   0.1805556  -0.5000000), wk =   0.0061728
        k(   80) = (   0.1250000   0.2083333  -0.5000000), wk =   0.0061728
        k(   81) = (   0.1250000   0.2361111  -0.5000000), wk =   0.0061728
        k(   82) = (   0.1250000   0.2638889  -0.5000000), wk =   0.0061728
        k(   83) = (   0.1250000   0.2916667  -0.5000000), wk =   0.0061728
        k(   84) = (   0.1250000   0.3194444  -0.5000000), wk =   0.0061728
        k(   85) = (   0.1250000   0.3472222  -0.5000000), wk =   0.0061728
        k(   86) = (   0.1250000   0.3750000  -0.5000000), wk =   0.0061728
        k(   87) = (   0.1250000   0.4027778  -0.5000000), wk =   0.0061728
        k(   88) = (   0.1250000   0.4305556  -0.5000000), wk =   0.0061728
        k(   89) = (   0.1250000   0.4583333  -0.5000000), wk =   0.0061728
        k(   90) = (   0.1250000   0.4861111  -0.5000000), wk =   0.0061728
        k(   91) = (   0.1527778   0.0138889  -0.5000000), wk =   0.0061728
        k(   92) = (   0.1527778   0.0416667  -0.5000000), wk =   0.0061728
        k(   93) = (   0.1527778   0.0694444  -0.5000000), wk =   0.0061728
        k(   94) = (   0.1527778   0.0972222  -0.5000000), wk =   0.0061728
        k(   95) = (   0.1527778   0.1250000  -0.5000000), wk =   0.0061728
        k(   96) = (   0.1527778   0.1527778  -0.5000000), wk =   0.0061728
        k(   97) = (   0.1527778   0.1805556  -0.5000000), wk =   0.0061728
        k(   98) = (   0.1527778   0.2083333  -0.5000000), wk =   0.0061728
        k(   99) = (   0.1527778   0.2361111  -0.5000000), wk =   0.0061728
        k(  100) = (   0.1527778   0.2638889  -0.5000000), wk =   0.0061728
        k(  101) = (   0.1527778   0.2916667  -0.5000000), wk =   0.0061728
        k(  102) = (   0.1527778   0.3194444  -0.5000000), wk =   0.0061728
        k(  103) = (   0.1527778   0.3472222  -0.5000000), wk =   0.0061728
        k(  104) = (   0.1527778   0.3750000  -0.5000000), wk =   0.0061728
        k(  105) = (   0.1527778   0.4027778  -0.5000000), wk =   0.0061728
        k(  106) = (   0.1527778   0.4305556  -0.5000000), wk =   0.0061728
        k(  107) = (   0.1527778   0.4583333  -0.5000000), wk =   0.0061728
        k(  108) = (   0.1527778   0.4861111  -0.5000000), wk =   0.0061728
        k(  109) = (   0.1805556   0.0138889  -0.5000000), wk =   0.0061728
        k(  110) = (   0.1805556   0.0416667  -0.5000000), wk =   0.0061728
        k(  111) = (   0.1805556   0.0694444  -0.5000000), wk =   0.0061728
        k(  112) = (   0.1805556   0.0972222  -0.5000000), wk =   0.0061728
        k(  113) = (   0.1805556   0.1250000  -0.5000000), wk =   0.0061728
        k(  114) = (   0.1805556   0.1527778  -0.5000000), wk =   0.0061728
        k(  115) = (   0.1805556   0.1805556  -0.5000000), wk =   0.0061728
        k(  116) = (   0.1805556   0.2083333  -0.5000000), wk =   0.0061728
        k(  117) = (   0.1805556   0.2361111  -0.5000000), wk =   0.0061728
        k(  118) = (   0.1805556   0.2638889  -0.5000000), wk =   0.0061728
        k(  119) = (   0.1805556   0.2916667  -0.5000000), wk =   0.0061728
        k(  120) = (   0.1805556   0.3194444  -0.5000000), wk =   0.0061728
        k(  121) = (   0.1805556   0.3472222  -0.5000000), wk =   0.0061728
        k(  122) = (   0.1805556   0.3750000  -0.5000000), wk =   0.0061728
        k(  123) = (   0.1805556   0.4027778  -0.5000000), wk =   0.0061728
        k(  124) = (   0.1805556   0.4305556  -0.5000000), wk =   0.0061728
        k(  125) = (   0.1805556   0.4583333  -0.5000000), wk =   0.0061728
        k(  126) = (   0.1805556   0.4861111  -0.5000000), wk =   0.0061728
        k(  127) = (   0.2083333   0.0138889  -0.5000000), wk =   0.0061728
        k(  128) = (   0.2083333   0.0416667  -0.5000000), wk =   0.0061728
        k(  129) = (   0.2083333   0.0694444  -0.5000000), wk =   0.0061728
        k(  130) = (   0.2083333   0.0972222  -0.5000000), wk =   0.0061728
        k(  131) = (   0.2083333   0.1250000  -0.5000000), wk =   0.0061728
        k(  132) = (   0.2083333   0.1527778  -0.5000000), wk =   0.0061728
        k(  133) = (   0.2083333   0.1805556  -0.5000000), wk =   0.0061728
        k(  134) = (   0.2083333   0.2083333  -0.5000000), wk =   0.0061728
        k(  135) = (   0.2083333   0.2361111  -0.5000000), wk =   0.0061728
        k(  136) = (   0.2083333   0.2638889  -0.5000000), wk =   0.0061728
        k(  137) = (   0.2083333   0.2916667  -0.5000000), wk =   0.0061728
        k(  138) = (   0.2083333   0.3194444  -0.5000000), wk =   0.0061728
        k(  139) = (   0.2083333   0.3472222  -0.5000000), wk =   0.0061728
        k(  140) = (   0.2083333   0.3750000  -0.5000000), wk =   0.0061728
        k(  141) = (   0.2083333   0.4027778  -0.5000000), wk =   0.0061728
        k(  142) = (   0.2083333   0.4305556  -0.5000000), wk =   0.0061728
        k(  143) = (   0.2083333   0.4583333  -0.5000000), wk =   0.0061728
        k(  144) = (   0.2083333   0.4861111  -0.5000000), wk =   0.0061728
        k(  145) = (   0.2361111   0.0138889  -0.5000000), wk =   0.0061728
        k(  146) = (   0.2361111   0.0416667  -0.5000000), wk =   0.0061728
        k(  147) = (   0.2361111   0.0694444  -0.5000000), wk =   0.0061728
        k(  148) = (   0.2361111   0.0972222  -0.5000000), wk =   0.0061728
        k(  149) = (   0.2361111   0.1250000  -0.5000000), wk =   0.0061728
        k(  150) = (   0.2361111   0.1527778  -0.5000000), wk =   0.0061728
        k(  151) = (   0.2361111   0.1805556  -0.5000000), wk =   0.0061728
        k(  152) = (   0.2361111   0.2083333  -0.5000000), wk =   0.0061728
        k(  153) = (   0.2361111   0.2361111  -0.5000000), wk =   0.0061728
        k(  154) = (   0.2361111   0.2638889  -0.5000000), wk =   0.0061728
        k(  155) = (   0.2361111   0.2916667  -0.5000000), wk =   0.0061728
        k(  156) = (   0.2361111   0.3194444  -0.5000000), wk =   0.0061728
        k(  157) = (   0.2361111   0.3472222  -0.5000000), wk =   0.0061728
        k(  158) = (   0.2361111   0.3750000  -0.5000000), wk =   0.0061728
        k(  159) = (   0.2361111   0.4027778  -0.5000000), wk =   0.0061728
        k(  160) = (   0.2361111   0.4305556  -0.5000000), wk =   0.0061728
        k(  161) = (   0.2361111   0.4583333  -0.5000000), wk =   0.0061728
        k(  162) = (   0.2361111   0.4861111  -0.5000000), wk =   0.0061728
        k(  163) = (   0.2638889   0.0138889  -0.5000000), wk =   0.0061728
        k(  164) = (   0.2638889   0.0416667  -0.5000000), wk =   0.0061728
        k(  165) = (   0.2638889   0.0694444  -0.5000000), wk =   0.0061728
        k(  166) = (   0.2638889   0.0972222  -0.5000000), wk =   0.0061728
        k(  167) = (   0.2638889   0.1250000  -0.5000000), wk =   0.0061728
        k(  168) = (   0.2638889   0.1527778  -0.5000000), wk =   0.0061728
        k(  169) = (   0.2638889   0.1805556  -0.5000000), wk =   0.0061728
        k(  170) = (   0.2638889   0.2083333  -0.5000000), wk =   0.0061728
        k(  171) = (   0.2638889   0.2361111  -0.5000000), wk =   0.0061728
        k(  172) = (   0.2638889   0.2638889  -0.5000000), wk =   0.0061728
        k(  173) = (   0.2638889   0.2916667  -0.5000000), wk =   0.0061728
        k(  174) = (   0.2638889   0.3194444  -0.5000000), wk =   0.0061728
        k(  175) = (   0.2638889   0.3472222  -0.5000000), wk =   0.0061728
        k(  176) = (   0.2638889   0.3750000  -0.5000000), wk =   0.0061728
        k(  177) = (   0.2638889   0.4027778  -0.5000000), wk =   0.0061728
        k(  178) = (   0.2638889   0.4305556  -0.5000000), wk =   0.0061728
        k(  179) = (   0.2638889   0.4583333  -0.5000000), wk =   0.0061728
        k(  180) = (   0.2638889   0.4861111  -0.5000000), wk =   0.0061728
        k(  181) = (   0.2916667   0.0138889  -0.5000000), wk =   0.0061728
        k(  182) = (   0.2916667   0.0416667  -0.5000000), wk =   0.0061728
        k(  183) = (   0.2916667   0.0694444  -0.5000000), wk =   0.0061728
        k(  184) = (   0.2916667   0.0972222  -0.5000000), wk =   0.0061728
        k(  185) = (   0.2916667   0.1250000  -0.5000000), wk =   0.0061728
        k(  186) = (   0.2916667   0.1527778  -0.5000000), wk =   0.0061728
        k(  187) = (   0.2916667   0.1805556  -0.5000000), wk =   0.0061728
        k(  188) = (   0.2916667   0.2083333  -0.5000000), wk =   0.0061728
        k(  189) = (   0.2916667   0.2361111  -0.5000000), wk =   0.0061728
        k(  190) = (   0.2916667   0.2638889  -0.5000000), wk =   0.0061728
        k(  191) = (   0.2916667   0.2916667  -0.5000000), wk =   0.0061728
        k(  192) = (   0.2916667   0.3194444  -0.5000000), wk =   0.0061728
        k(  193) = (   0.2916667   0.3472222  -0.5000000), wk =   0.0061728
        k(  194) = (   0.2916667   0.3750000  -0.5000000), wk =   0.0061728
        k(  195) = (   0.2916667   0.4027778  -0.5000000), wk =   0.0061728
        k(  196) = (   0.2916667   0.4305556  -0.5000000), wk =   0.0061728
        k(  197) = (   0.2916667   0.4583333  -0.5000000), wk =   0.0061728
        k(  198) = (   0.2916667   0.4861111  -0.5000000), wk =   0.0061728
        k(  199) = (   0.3194444   0.0138889  -0.5000000), wk =   0.0061728
        k(  200) = (   0.3194444   0.0416667  -0.5000000), wk =   0.0061728
        k(  201) = (   0.3194444   0.0694444  -0.5000000), wk =   0.0061728
        k(  202) = (   0.3194444   0.0972222  -0.5000000), wk =   0.0061728
        k(  203) = (   0.3194444   0.1250000  -0.5000000), wk =   0.0061728
        k(  204) = (   0.3194444   0.1527778  -0.5000000), wk =   0.0061728
        k(  205) = (   0.3194444   0.1805556  -0.5000000), wk =   0.0061728
        k(  206) = (   0.3194444   0.2083333  -0.5000000), wk =   0.0061728
        k(  207) = (   0.3194444   0.2361111  -0.5000000), wk =   0.0061728
        k(  208) = (   0.3194444   0.2638889  -0.5000000), wk =   0.0061728
        k(  209) = (   0.3194444   0.2916667  -0.5000000), wk =   0.0061728
        k(  210) = (   0.3194444   0.3194444  -0.5000000), wk =   0.0061728
        k(  211) = (   0.3194444   0.3472222  -0.5000000), wk =   0.0061728
        k(  212) = (   0.3194444   0.3750000  -0.5000000), wk =   0.0061728
        k(  213) = (   0.3194444   0.4027778  -0.5000000), wk =   0.0061728
        k(  214) = (   0.3194444   0.4305556  -0.5000000), wk =   0.0061728
        k(  215) = (   0.3194444   0.4583333  -0.5000000), wk =   0.0061728
        k(  216) = (   0.3194444   0.4861111  -0.5000000), wk =   0.0061728
        k(  217) = (   0.3472222   0.0138889  -0.5000000), wk =   0.0061728
        k(  218) = (   0.3472222   0.0416667  -0.5000000), wk =   0.0061728
        k(  219) = (   0.3472222   0.0694444  -0.5000000), wk =   0.0061728
        k(  220) = (   0.3472222   0.0972222  -0.5000000), wk =   0.0061728
        k(  221) = (   0.3472222   0.1250000  -0.5000000), wk =   0.0061728
        k(  222) = (   0.3472222   0.1527778  -0.5000000), wk =   0.0061728
        k(  223) = (   0.3472222   0.1805556  -0.5000000), wk =   0.0061728
        k(  224) = (   0.3472222   0.2083333  -0.5000000), wk =   0.0061728
        k(  225) = (   0.3472222   0.2361111  -0.5000000), wk =   0.0061728
        k(  226) = (   0.3472222   0.2638889  -0.5000000), wk =   0.0061728
        k(  227) = (   0.3472222   0.2916667  -0.5000000), wk =   0.0061728
        k(  228) = (   0.3472222   0.3194444  -0.5000000), wk =   0.0061728
        k(  229) = (   0.3472222   0.3472222  -0.5000000), wk =   0.0061728
        k(  230) = (   0.3472222   0.3750000  -0.5000000), wk =   0.0061728
        k(  231) = (   0.3472222   0.4027778  -0.5000000), wk =   0.0061728
        k(  232) = (   0.3472222   0.4305556  -0.5000000), wk =   0.0061728
        k(  233) = (   0.3472222   0.4583333  -0.5000000), wk =   0.0061728
        k(  234) = (   0.3472222   0.4861111  -0.5000000), wk =   0.0061728
        k(  235) = (   0.3750000   0.0138889  -0.5000000), wk =   0.0061728
        k(  236) = (   0.3750000   0.0416667  -0.5000000), wk =   0.0061728
        k(  237) = (   0.3750000   0.0694444  -0.5000000), wk =   0.0061728
        k(  238) = (   0.3750000   0.0972222  -0.5000000), wk =   0.0061728
        k(  239) = (   0.3750000   0.1250000  -0.5000000), wk =   0.0061728
        k(  240) = (   0.3750000   0.1527778  -0.5000000), wk =   0.0061728
        k(  241) = (   0.3750000   0.1805556  -0.5000000), wk =   0.0061728
        k(  242) = (   0.3750000   0.2083333  -0.5000000), wk =   0.0061728
        k(  243) = (   0.3750000   0.2361111  -0.5000000), wk =   0.0061728
        k(  244) = (   0.3750000   0.2638889  -0.5000000), wk =   0.0061728
        k(  245) = (   0.3750000   0.2916667  -0.5000000), wk =   0.0061728
        k(  246) = (   0.3750000   0.3194444  -0.5000000), wk =   0.0061728
        k(  247) = (   0.3750000   0.3472222  -0.5000000), wk =   0.0061728
        k(  248) = (   0.3750000   0.3750000  -0.5000000), wk =   0.0061728
        k(  249) = (   0.3750000   0.4027778  -0.5000000), wk =   0.0061728
        k(  250) = (   0.3750000   0.4305556  -0.5000000), wk =   0.0061728
        k(  251) = (   0.3750000   0.4583333  -0.5000000), wk =   0.0061728
        k(  252) = (   0.3750000   0.4861111  -0.5000000), wk =   0.0061728
        k(  253) = (   0.4027778   0.0138889  -0.5000000), wk =   0.0061728
        k(  254) = (   0.4027778   0.0416667  -0.5000000), wk =   0.0061728
        k(  255) = (   0.4027778   0.0694444  -0.5000000), wk =   0.0061728
        k(  256) = (   0.4027778   0.0972222  -0.5000000), wk =   0.0061728
        k(  257) = (   0.4027778   0.1250000  -0.5000000), wk =   0.0061728
        k(  258) = (   0.4027778   0.1527778  -0.5000000), wk =   0.0061728
        k(  259) = (   0.4027778   0.1805556  -0.5000000), wk =   0.0061728
        k(  260) = (   0.4027778   0.2083333  -0.5000000), wk =   0.0061728
        k(  261) = (   0.4027778   0.2361111  -0.5000000), wk =   0.0061728
        k(  262) = (   0.4027778   0.2638889  -0.5000000), wk =   0.0061728
        k(  263) = (   0.4027778   0.2916667  -0.5000000), wk =   0.0061728
        k(  264) = (   0.4027778   0.3194444  -0.5000000), wk =   0.0061728
        k(  265) = (   0.4027778   0.3472222  -0.5000000), wk =   0.0061728
        k(  266) = (   0.4027778   0.3750000  -0.5000000), wk =   0.0061728
        k(  267) = (   0.4027778   0.4027778  -0.5000000), wk =   0.0061728
        k(  268) = (   0.4027778   0.4305556  -0.5000000), wk =   0.0061728
        k(  269) = (   0.4027778   0.4583333  -0.5000000), wk =   0.0061728
        k(  270) = (   0.4027778   0.4861111  -0.5000000), wk =   0.0061728
        k(  271) = (   0.4305556   0.0138889  -0.5000000), wk =   0.0061728
        k(  272) = (   0.4305556   0.0416667  -0.5000000), wk =   0.0061728
        k(  273) = (   0.4305556   0.0694444  -0.5000000), wk =   0.0061728
        k(  274) = (   0.4305556   0.0972222  -0.5000000), wk =   0.0061728
        k(  275) = (   0.4305556   0.1250000  -0.5000000), wk =   0.0061728
        k(  276) = (   0.4305556   0.1527778  -0.5000000), wk =   0.0061728
        k(  277) = (   0.4305556   0.1805556  -0.5000000), wk =   0.0061728
        k(  278) = (   0.4305556   0.2083333  -0.5000000), wk =   0.0061728
        k(  279) = (   0.4305556   0.2361111  -0.5000000), wk =   0.0061728
        k(  280) = (   0.4305556   0.2638889  -0.5000000), wk =   0.0061728
        k(  281) = (   0.4305556   0.2916667  -0.5000000), wk =   0.0061728
        k(  282) = (   0.4305556   0.3194444  -0.5000000), wk =   0.0061728
        k(  283) = (   0.4305556   0.3472222  -0.5000000), wk =   0.0061728
        k(  284) = (   0.4305556   0.3750000  -0.5000000), wk =   0.0061728
        k(  285) = (   0.4305556   0.4027778  -0.5000000), wk =   0.0061728
        k(  286) = (   0.4305556   0.4305556  -0.5000000), wk =   0.0061728
        k(  287) = (   0.4305556   0.4583333  -0.5000000), wk =   0.0061728
        k(  288) = (   0.4305556   0.4861111  -0.5000000), wk =   0.0061728
        k(  289) = (   0.4583333   0.0138889  -0.5000000), wk =   0.0061728
        k(  290) = (   0.4583333   0.0416667  -0.5000000), wk =   0.0061728
        k(  291) = (   0.4583333   0.0694444  -0.5000000), wk =   0.0061728
        k(  292) = (   0.4583333   0.0972222  -0.5000000), wk =   0.0061728
        k(  293) = (   0.4583333   0.1250000  -0.5000000), wk =   0.0061728
        k(  294) = (   0.4583333   0.1527778  -0.5000000), wk =   0.0061728
        k(  295) = (   0.4583333   0.1805556  -0.5000000), wk =   0.0061728
        k(  296) = (   0.4583333   0.2083333  -0.5000000), wk =   0.0061728
        k(  297) = (   0.4583333   0.2361111  -0.5000000), wk =   0.0061728
        k(  298) = (   0.4583333   0.2638889  -0.5000000), wk =   0.0061728
        k(  299) = (   0.4583333   0.2916667  -0.5000000), wk =   0.0061728
        k(  300) = (   0.4583333   0.3194444  -0.5000000), wk =   0.0061728
        k(  301) = (   0.4583333   0.3472222  -0.5000000), wk =   0.0061728
        k(  302) = (   0.4583333   0.3750000  -0.5000000), wk =   0.0061728
        k(  303) = (   0.4583333   0.4027778  -0.5000000), wk =   0.0061728
        k(  304) = (   0.4583333   0.4305556  -0.5000000), wk =   0.0061728
        k(  305) = (   0.4583333   0.4583333  -0.5000000), wk =   0.0061728
        k(  306) = (   0.4583333   0.4861111  -0.5000000), wk =   0.0061728
        k(  307) = (   0.4861111   0.0138889  -0.5000000), wk =   0.0061728
        k(  308) = (   0.4861111   0.0416667  -0.5000000), wk =   0.0061728
        k(  309) = (   0.4861111   0.0694444  -0.5000000), wk =   0.0061728
        k(  310) = (   0.4861111   0.0972222  -0.5000000), wk =   0.0061728
        k(  311) = (   0.4861111   0.1250000  -0.5000000), wk =   0.0061728
        k(  312) = (   0.4861111   0.1527778  -0.5000000), wk =   0.0061728
        k(  313) = (   0.4861111   0.1805556  -0.5000000), wk =   0.0061728
        k(  314) = (   0.4861111   0.2083333  -0.5000000), wk =   0.0061728
        k(  315) = (   0.4861111   0.2361111  -0.5000000), wk =   0.0061728
        k(  316) = (   0.4861111   0.2638889  -0.5000000), wk =   0.0061728
        k(  317) = (   0.4861111   0.2916667  -0.5000000), wk =   0.0061728
        k(  318) = (   0.4861111   0.3194444  -0.5000000), wk =   0.0061728
        k(  319) = (   0.4861111   0.3472222  -0.5000000), wk =   0.0061728
        k(  320) = (   0.4861111   0.3750000  -0.5000000), wk =   0.0061728
        k(  321) = (   0.4861111   0.4027778  -0.5000000), wk =   0.0061728
        k(  322) = (   0.4861111   0.4305556  -0.5000000), wk =   0.0061728
        k(  323) = (   0.4861111   0.4583333  -0.5000000), wk =   0.0061728
        k(  324) = (   0.4861111   0.4861111  -0.5000000), wk =   0.0061728

     Dense  grid:   622029 G-vectors     FFT dimensions: (  64,  72, 300)

     Smooth grid:   119627 G-vectors     FFT dimensions: (  40,  40, 180)

     Dynamical RAM for                 wfc:       0.68 MB

     Dynamical RAM for     wfc (w. buffer):     222.56 MB

     Dynamical RAM for           str. fact:       0.95 MB

     Dynamical RAM for           local pot:       0.00 MB

     Dynamical RAM for          nlocal pot:       0.82 MB

     Dynamical RAM for                qrad:       3.93 MB

     Dynamical RAM for          rho,v,vnew:       3.01 MB

     Dynamical RAM for               rhoin:       1.00 MB

     Dynamical RAM for            rho*nmix:       7.59 MB

     Dynamical RAM for           G-vectors:       1.83 MB

     Dynamical RAM for          h,s,v(r/c):       0.66 MB

     Dynamical RAM for          <psi|beta>:       0.07 MB

     Dynamical RAM for                 psi:       1.37 MB

     Dynamical RAM for                hpsi:       1.37 MB

     Dynamical RAM for      wfcinit/wfcrot:       1.45 MB

     Estimated static dynamical RAM per process >     245.75 MB

     Estimated max dynamical RAM per process >     249.22 MB

     Estimated total dynamical RAM >       4.87 GB

     Initial potential from superposition of free atoms

     starting charge   59.81470, renormalised to   60.00000

     negative rho (up, down):  4.789E-04 0.000E+00
     Starting wfcs are random

     total cpu time spent up to now is       16.4 secs

     Self-consistent Calculation

     iteration #  1     ecut=    50.00 Ry     beta= 0.70
     Davidson diagonalization with overlap
     ethr =  1.00E-02,  avg # of iterations = 10.0

     Threshold (ethr) on eigenvalues was too large:
     Diagonalizing with lowered threshold

     Davidson diagonalization with overlap
     c_bands:  1 eigenvalues not converged
     c_bands:  1 eigenvalues not converged
     c_bands:  1 eigenvalues not converged
     ethr =  5.79E-05,  avg # of iterations = 10.6

     negative rho (up, down):  3.721E-05 0.000E+00

     total cpu time spent up to now is      261.8 secs

     total energy              =    -632.71464549 Ry
     estimated scf accuracy    <       0.02879222 Ry

     iteration #  2     ecut=    50.00 Ry     beta= 0.70
     Davidson diagonalization with overlap
     ethr =  4.80E-05,  avg # of iterations =  2.4

     negative rho (up, down):  1.838E-05 0.000E+00

     total cpu time spent up to now is      313.5 secs

     total energy              =    -632.71704375 Ry
     estimated scf accuracy    <       0.01049219 Ry

     iteration #  3     ecut=    50.00 Ry     beta= 0.70
     Davidson diagonalization with overlap
     c_bands:  1 eigenvalues not converged
     ethr =  1.75E-05,  avg # of iterations =  7.8

     negative rho (up, down):  6.566E-06 0.000E+00

     total cpu time spent up to now is      381.7 secs

     total energy              =    -632.71969130 Ry
     estimated scf accuracy    <       0.00555643 Ry

     iteration #  4     ecut=    50.00 Ry     beta= 0.70
     Davidson diagonalization with overlap
     c_bands:  1 eigenvalues not converged
     ethr =  9.26E-06,  avg # of iterations =  4.3

     negative rho (up, down):  1.528E-06 0.000E+00

     total cpu time spent up to now is      432.7 secs

     total energy              =    -632.72077487 Ry
     estimated scf accuracy    <       0.00039844 Ry

     iteration #  5     ecut=    50.00 Ry     beta= 0.70
     Davidson diagonalization with overlap
     c_bands:  1 eigenvalues not converged
     c_bands:  1 eigenvalues not converged
     c_bands:  1 eigenvalues not converged
     ethr =  6.64E-07,  avg # of iterations =  5.9

     negative rho (up, down):  1.214E-07 0.000E+00

     total cpu time spent up to now is      489.7 secs

     total energy              =    -632.72085061 Ry
     estimated scf accuracy    <       0.00007143 Ry

     iteration #  6     ecut=    50.00 Ry     beta= 0.70
     Davidson diagonalization with overlap
     ethr =  1.19E-07,  avg # of iterations =  2.2

     total cpu time spent up to now is      536.2 secs

     total energy              =    -632.72083342 Ry
     estimated scf accuracy    <       0.00043978 Ry

     iteration #  7     ecut=    50.00 Ry     beta= 0.70
     Davidson diagonalization with overlap
     ethr =  1.19E-07,  avg # of iterations =  1.1

     total cpu time spent up to now is      577.6 secs

     total energy              =    -632.72087872 Ry
     estimated scf accuracy    <       0.00000182 Ry

     iteration #  8     ecut=    50.00 Ry     beta= 0.70
     Davidson diagonalization with overlap
     ethr =  3.03E-09,  avg # of iterations =  2.0

     total cpu time spent up to now is      623.9 secs

     total energy              =    -632.72087909 Ry
     estimated scf accuracy    <       0.00000008 Ry

     iteration #  9     ecut=    50.00 Ry     beta= 0.70
     Davidson diagonalization with overlap
     ethr =  1.32E-10,  avg # of iterations =  2.0

     total cpu time spent up to now is      671.6 secs

     total energy              =    -632.72087911 Ry
     estimated scf accuracy    <          7.8E-09 Ry

     iteration # 10     ecut=    50.00 Ry     beta= 0.70
     Davidson diagonalization with overlap
     ethr =  1.30E-11,  avg # of iterations =  2.3

     total cpu time spent up to now is      721.1 secs

     End of self-consistent calculation

          k = 0.0139 0.0134-0.1059 ( 14898 PWs)   bands (ev):

   -36.6551 -36.6545 -36.6532 -36.6529 -36.6391 -36.6387 -36.6296 -36.6292
   -36.6254 -36.6246 -24.6688 -24.6622 -24.6585 -24.6578 -24.6504 -24.6464
   -24.6369 -24.6368 -24.6361 -24.6328 -12.5351 -11.1016  -7.0091  -5.7731
    -3.3728  -3.0399  -2.9300  -1.6403  -1.5831  -0.9713   1.5861   2.6932
     3.3217   3.7267   3.7578   4.2422   4.6552   4.7800   5.0383   5.3726
     5.5592   5.8972   7.2440   7.5145   7.8905   8.0816   8.1778   8.5496
     9.2912   9.6488   9.7856  10.0632  10.5550  11.2136  11.3864  11.4477
    11.7995  11.9443  12.0711  12.3168

     occupation numbers 
     1.0000   1.0000   1.0000   1.0000   1.0000   1.0000   1.0000   1.0000
     1.0000   1.0000   1.0000   1.0000   1.0000   1.0000   1.0000   1.0000
     1.0000   1.0000   1.0000   1.0000   1.0000   1.0000   1.0000   1.0000
     1.0000   1.0000   1.0000   1.0000   1.0000   1.0000   0.0000   0.0000
     0.0000   0.0000   0.0000   0.0000   0.0000   0.0000   0.0000   0.0000
     0.0000   0.0000   0.0000   0.0000   0.0000   0.0000   0.0000   0.0000
     0.0000   0.0000   0.0000   0.0000   0.0000   0.0000   0.0000   0.0000
     0.0000   0.0000   0.0000   0.0000

          k = 0.0139 0.0403-0.1059 ( 14898 PWs)   bands (ev):

   -36.6551 -36.6545 -36.6532 -36.6529 -36.6391 -36.6387 -36.6296 -36.6293
   -36.6254 -36.6246 -24.6688 -24.6623 -24.6586 -24.6578 -24.6504 -24.6464
   -24.6369 -24.6368 -24.6361 -24.6328 -12.5261 -11.0972  -7.0390  -5.7974
    -3.3904  -3.0211  -2.9107  -1.6294  -1.5390  -0.9778   1.5790   2.7212
     3.2760   3.6926   3.7388   4.2539   4.6061   4.7657   5.0373   5.3716
     5.5674   5.9011   7.2104   7.4959   7.8858   8.1428   8.2514   8.5870
     9.3627   9.6048   9.8801  10.0812  10.5473  11.0807  11.3522  11.4362
    11.7635  11.8742  12.0046  12.3314

     occupation numbers 
     1.0000   1.0000   1.0000   1.0000   1.0000   1.0000   1.0000   1.0000
     1.0000   1.0000   1.0000   1.0000   1.0000   1.0000   1.0000   1.0000
     1.0000   1.0000   1.0000   1.0000   1.0000   1.0000   1.0000   1.0000
     1.0000   1.0000   1.0000   1.0000   1.0000   1.0000   0.0000   0.0000
     0.0000   0.0000   0.0000   0.0000   0.0000   0.0000   0.0000   0.0000
     0.0000   0.0000   0.0000   0.0000   0.0000   0.0000   0.0000   0.0000
     0.0000   0.0000   0.0000   0.0000   0.0000   0.0000   0.0000   0.0000
     0.0000   0.0000   0.0000   0.0000

          k = 0.0139 0.0671-0.1059 ( 14900 PWs)   bands (ev):

   -36.6551 -36.6545 -36.6532 -36.6530 -36.6391 -36.6386 -36.6296 -36.6293
   -36.6254 -36.6246 -24.6687 -24.6623 -24.6586 -24.6578 -24.6503 -24.6464
   -24.6369 -24.6368 -24.6360 -24.6328 -12.5082 -11.0885  -7.0967  -5.8460
    -3.4199  -2.9870  -2.8702  -1.6103  -1.4540  -0.9910   1.5656   2.7753
     3.1842   3.5757   3.7569   4.2774   4.5109   4.7369   5.0336   5.3731
     5.5913   5.9102   7.1469   7.4682   7.8850   8.2510   8.3708   8.6847
     9.4920   9.5323  10.0585  10.1132  10.4402  10.9978  11.1392  11.4649
    11.7504  11.8668  12.0191  12.2319

     occupation numbers 
     1.0000   1.0000   1.0000   1.0000   1.0000   1.0000   1.0000   1.0000
     1.0000   1.0000   1.0000   1.0000   1.0000   1.0000   1.0000   1.0000
     1.0000   1.0000   1.0000   1.0000   1.0000   1.0000   1.0000   1.0000
     1.0000   1.0000   1.0000   1.0000   1.0000   1.0000   0.0000   0.0000
     0.0000   0.0000   0.0000   0.0000   0.0000   0.0000   0.0000   0.0000
     0.0000   0.0000   0.0000   0.0000   0.0000   0.0000   0.0000   0.0000
     0.0000   0.0000   0.0000   0.0000   0.0000   0.0000   0.0000   0.0000
     0.0000   0.0000   0.0000   0.0000

          k = 0.0139 0.0940-0.1059 ( 14900 PWs)   bands (ev):

   -36.6551 -36.6545 -36.6532 -36.6530 -36.6390 -36.6386 -36.6296 -36.6293
   -36.6254 -36.6246 -24.6687 -24.6624 -24.6586 -24.6579 -24.6502 -24.6464
   -24.6370 -24.6369 -24.6360 -24.6329 -12.4813 -11.0761  -7.1783  -5.9183
    -3.4528  -2.9425  -2.8066  -1.5830  -1.3369  -1.0116   1.5478   2.8506
     3.0482   3.4167   3.7827   4.3124   4.3753   4.6928   5.0258   5.3828
     5.6426   5.9266   7.0624   7.4440   7.8958   8.3413   8.5502   8.8572
     9.4532   9.6473  10.1572  10.2178  10.3122  10.8271  11.0418  11.5027
    11.7279  11.9156  11.9648  12.1560

     occupation numbers 
     1.0000   1.0000   1.0000   1.0000   1.0000   1.0000   1.0000   1.0000
     1.0000   1.0000   1.0000   1.0000   1.0000   1.0000   1.0000   1.0000
     1.0000   1.0000   1.0000   1.0000   1.0000   1.0000   1.0000   1.0000
     1.0000   1.0000   1.0000   1.0000   1.0000   1.0000   0.0000   0.0000
     0.0000   0.0000   0.0000   0.0000   0.0000   0.0000   0.0000   0.0000
     0.0000   0.0000   0.0000   0.0000   0.0000   0.0000   0.0000   0.0000
     0.0000   0.0000   0.0000   0.0000   0.0000   0.0000   0.0000   0.0000
     0.0000   0.0000   0.0000   0.0000

          k = 0.0139 0.1209-0.1059 ( 14906 PWs)   bands (ev):

   -36.6551 -36.6545 -36.6532 -36.6530 -36.6390 -36.6386 -36.6296 -36.6293
   -36.6254 -36.6246 -24.6686 -24.6625 -24.6586 -24.6579 -24.6501 -24.6463
   -24.6370 -24.6369 -24.6359 -24.6329 -12.4458 -11.0605  -7.2791  -6.0133
    -3.4810  -2.8900  -2.7215  -1.5480  -1.1968  -1.0402   1.5282   2.8733
     2.9389   3.2282   3.8131   4.2058   4.3600   4.6335   5.0162   5.4060
     5.7316   5.9529   6.9699   7.4324   7.9211   8.3895   8.7937   9.0520
     9.4131   9.6837  10.1158  10.2121  10.5100  10.6092  11.1139  11.4562
    11.5676  11.9163  11.9310  12.1057

     occupation numbers 
     1.0000   1.0000   1.0000   1.0000   1.0000   1.0000   1.0000   1.0000
     1.0000   1.0000   1.0000   1.0000   1.0000   1.0000   1.0000   1.0000
     1.0000   1.0000   1.0000   1.0000   1.0000   1.0000   1.0000   1.0000
     1.0000   1.0000   1.0000   1.0000   1.0000   1.0000   0.0000   0.0000
     0.0000   0.0000   0.0000   0.0000   0.0000   0.0000   0.0000   0.0000
     0.0000   0.0000   0.0000   0.0000   0.0000   0.0000   0.0000   0.0000
     0.0000   0.0000   0.0000   0.0000   0.0000   0.0000   0.0000   0.0000
     0.0000   0.0000   0.0000   0.0000

          k = 0.0139 0.1477-0.1059 ( 14906 PWs)   bands (ev):

   -36.6551 -36.6545 -36.6532 -36.6530 -36.6389 -36.6385 -36.6296 -36.6293
   -36.6254 -36.6246 -24.6684 -24.6626 -24.6586 -24.6580 -24.6500 -24.6463
   -24.6371 -24.6369 -24.6358 -24.6329 -12.4016 -11.0428  -7.3933  -6.1290
    -3.4985  -2.8292  -2.6189  -1.5057  -1.0775  -1.0412   1.5101   2.6688
     3.0192   3.0266   3.8434   4.0119   4.4190   4.5627   5.0145   5.4454
     5.8632   5.9921   6.8816   7.4379   7.9603   8.4167   9.0081   9.1776
     9.4596   9.5350  10.1745  10.2970  10.3243  10.9377  11.0880  11.3466
    11.3590  11.7336  12.0426  12.0495

     occupation numbers 
     1.0000   1.0000   1.0000   1.0000   1.0000   1.0000   1.0000   1.0000
     1.0000   1.0000   1.0000   1.0000   1.0000   1.0000   1.0000   1.0000
     1.0000   1.0000   1.0000   1.0000   1.0000   1.0000   1.0000   1.0000
     1.0000   1.0000   1.0000   1.0000   1.0000   1.0000   0.0000   0.0000
     0.0000   0.0000   0.0000   0.0000   0.0000   0.0000   0.0000   0.0000
     0.0000   0.0000   0.0000   0.0000   0.0000   0.0000   0.0000   0.0000
     0.0000   0.0000   0.0000   0.0000   0.0000   0.0000   0.0000   0.0000
     0.0000   0.0000   0.0000   0.0000

          k = 0.0139 0.1746-0.1059 ( 14902 PWs)   bands (ev):

   -36.6551 -36.6545 -36.6532 -36.6530 -36.6388 -36.6384 -36.6296 -36.6293
   -36.6254 -36.6247 -24.6683 -24.6627 -24.6587 -24.6581 -24.6498 -24.6463
   -24.6371 -24.6370 -24.6358 -24.6330 -12.3491 -11.0243  -7.5153  -6.2626
    -3.5015  -2.7596  -2.5039  -1.4573  -1.1236  -0.8761   1.4970   2.4452
     2.7970   3.0939   3.8021   3.8637   4.4902   4.4910   5.0383   5.5013
     6.0202   6.0634   6.8062   7.4618   8.0110   8.4254   8.9798   9.1725
     9.4317   9.7381   9.9540  10.4232  10.5715  10.8334  11.1167  11.3080
    11.4154  11.5033  12.0479  12.1492

     occupation numbers 
     1.0000   1.0000   1.0000   1.0000   1.0000   1.0000   1.0000   1.0000
     1.0000   1.0000   1.0000   1.0000   1.0000   1.0000   1.0000   1.0000
     1.0000   1.0000   1.0000   1.0000   1.0000   1.0000   1.0000   1.0000
     1.0000   1.0000   1.0000   1.0000   1.0000   1.0000   0.0000   0.0000
     0.0000   0.0000   0.0000   0.0000   0.0000   0.0000   0.0000   0.0000
     0.0000   0.0000   0.0000   0.0000   0.0000   0.0000   0.0000   0.0000
     0.0000   0.0000   0.0000   0.0000   0.0000   0.0000   0.0000   0.0000
     0.0000   0.0000   0.0000   0.0000

          k = 0.0139 0.2014-0.1059 ( 14912 PWs)   bands (ev):

   -36.6550 -36.6545 -36.6532 -36.6530 -36.6387 -36.6384 -36.6296 -36.6293
   -36.6254 -36.6247 -24.6681 -24.6629 -24.6587 -24.6582 -24.6496 -24.6463
   -24.6372 -24.6370 -24.6357 -24.6331 -12.2887 -11.0064  -7.6396  -6.4107
    -3.4884  -2.6807  -2.3813  -1.4041  -1.1776  -0.7060   1.4926   2.2119
     2.5678   3.1167   3.5873   3.8564   4.4388   4.5737   5.1095   5.5727
     6.1008   6.2663   6.7478   7.5036   8.0686   8.3989   8.8890   8.8932
     9.5542   9.7652  10.0638  10.5247  10.5877  10.8930  10.9049  11.3456
    11.4459  11.7347  11.8171  12.1703

     occupation numbers 
     1.0000   1.0000   1.0000   1.0000   1.0000   1.0000   1.0000   1.0000
     1.0000   1.0000   1.0000   1.0000   1.0000   1.0000   1.0000   1.0000
     1.0000   1.0000   1.0000   1.0000   1.0000   1.0000   1.0000   1.0000
     1.0000   1.0000   1.0000   1.0000   1.0000   1.0000   0.0000   0.0000
     0.0000   0.0000   0.0000   0.0000   0.0000   0.0000   0.0000   0.0000
     0.0000   0.0000   0.0000   0.0000   0.0000   0.0000   0.0000   0.0000
     0.0000   0.0000   0.0000   0.0000   0.0000   0.0000   0.0000   0.0000
     0.0000   0.0000   0.0000   0.0000

          k = 0.0139 0.2283-0.1059 ( 14930 PWs)   bands (ev):

   -36.6550 -36.6546 -36.6532 -36.6530 -36.6386 -36.6383 -36.6296 -36.6293
   -36.6253 -36.6247 -24.6679 -24.6631 -24.6587 -24.6583 -24.6494 -24.6464
   -24.6372 -24.6371 -24.6355 -24.6332 -12.2206 -10.9913  -7.7605  -6.5695
    -3.4592  -2.5927  -2.2564  -1.3483  -1.2366  -0.5345   1.4996   1.9770
     2.3380   3.0699   3.3831   3.8021   4.4291   4.6690   5.2448   5.6590
     6.1805   6.5195   6.7064   7.5619   8.1207   8.3086   8.6352   8.8314
     9.3505   9.9621  10.2122  10.2286  10.6309  10.8789  11.2307  11.3010
    11.5301  11.5934  12.1144  12.2195

     occupation numbers 
     1.0000   1.0000   1.0000   1.0000   1.0000   1.0000   1.0000   1.0000
     1.0000   1.0000   1.0000   1.0000   1.0000   1.0000   1.0000   1.0000
     1.0000   1.0000   1.0000   1.0000   1.0000   1.0000   1.0000   1.0000
     1.0000   1.0000   1.0000   1.0000   1.0000   1.0000   0.0000   0.0000
     0.0000   0.0000   0.0000   0.0000   0.0000   0.0000   0.0000   0.0000
     0.0000   0.0000   0.0000   0.0000   0.0000   0.0000   0.0000   0.0000
     0.0000   0.0000   0.0000   0.0000   0.0000   0.0000   0.0000   0.0000
     0.0000   0.0000   0.0000   0.0000

          k = 0.0139 0.2552-0.1059 ( 14934 PWs)   bands (ev):

   -36.6550 -36.6546 -36.6532 -36.6530 -36.6385 -36.6382 -36.6296 -36.6294
   -36.6253 -36.6247 -24.6677 -24.6633 -24.6588 -24.6584 -24.6492 -24.6464
   -24.6373 -24.6371 -24.6354 -24.6332 -12.1454 -10.9811  -7.8729  -6.7352
    -3.4145  -2.4960  -2.1372  -1.2940  -1.2925  -0.3652   1.5203   1.7471
     2.1140   2.9390   3.2064   3.6987   4.4680   4.7758   5.4479   5.7607
     6.2725   6.6778   6.8007   7.6346   8.1179   8.1519   8.4686   8.7929
     9.1623   9.9344  10.0701  10.2260  10.4903  11.1644  11.2716  11.4972
    11.5534  11.6706  12.2225  12.2437

     occupation numbers 
     1.0000   1.0000   1.0000   1.0000   1.0000   1.0000   1.0000   1.0000
     1.0000   1.0000   1.0000   1.0000   1.0000   1.0000   1.0000   1.0000
     1.0000   1.0000   1.0000   1.0000   1.0000   1.0000   1.0000   1.0000
     1.0000   1.0000   1.0000   1.0000   1.0000   1.0000   0.0000   0.0000
     0.0000   0.0000   0.0000   0.0000   0.0000   0.0000   0.0000   0.0000
     0.0000   0.0000   0.0000   0.0000   0.0000   0.0000   0.0000   0.0000
     0.0000   0.0000   0.0000   0.0000   0.0000   0.0000   0.0000   0.0000
     0.0000   0.0000   0.0000   0.0000

          k = 0.0139 0.2820-0.1059 ( 14932 PWs)   bands (ev):

   -36.6550 -36.6546 -36.6532 -36.6531 -36.6384 -36.6382 -36.6296 -36.6294
   -36.6253 -36.6248 -24.6674 -24.6635 -24.6588 -24.6585 -24.6490 -24.6464
   -24.6374 -24.6372 -24.6353 -24.6333 -12.0636 -10.9783  -7.9717  -6.9043
    -3.3554  -2.3914  -2.0377  -1.3354  -1.2405  -0.2027   1.5289   1.5561
     1.9026   2.7473   3.0464   3.5611   4.5441   4.8938   5.7033   5.8854
     6.3770   6.6547   7.0913   7.7152   7.9639   8.0006   8.4617   8.7067
     9.0637   9.6504   9.9962  10.1827  10.4226  11.1477  11.4578  11.5675
    11.7601  11.9323  12.1393  12.1986

     occupation numbers 
     1.0000   1.0000   1.0000   1.0000   1.0000   1.0000   1.0000   1.0000
     1.0000   1.0000   1.0000   1.0000   1.0000   1.0000   1.0000   1.0000
     1.0000   1.0000   1.0000   1.0000   1.0000   1.0000   1.0000   1.0000
     1.0000   1.0000   1.0000   1.0000   1.0000   1.0000   0.0000   0.0000
     0.0000   0.0000   0.0000   0.0000   0.0000   0.0000   0.0000   0.0000
     0.0000   0.0000   0.0000   0.0000   0.0000   0.0000   0.0000   0.0000
     0.0000   0.0000   0.0000   0.0000   0.0000   0.0000   0.0000   0.0000
     0.0000   0.0000   0.0000   0.0000

          k = 0.0139 0.3089-0.1059 ( 14934 PWs)   bands (ev):

   -36.6550 -36.6546 -36.6532 -36.6531 -36.6383 -36.6381 -36.6296 -36.6294
   -36.6253 -36.6248 -24.6672 -24.6637 -24.6589 -24.6586 -24.6487 -24.6465
   -24.6374 -24.6373 -24.6351 -24.6334 -11.9760 -10.9853  -8.0526  -7.0735
    -3.2832  -2.2811  -1.9801  -1.3368  -1.1969  -0.0545   1.3309   1.6073
     1.7122   2.5334   2.8800   3.4039   4.6459   5.0230   5.9350   6.0928
     6.4932   6.6285   7.3273   7.7520   7.8153   7.9062   8.5366   8.5496
     9.0646   9.3824   9.8214  10.1235  10.3676  11.1019  11.5156  11.5382
    11.9523  12.0399  12.3024  12.3322

     occupation numbers 
     1.0000   1.0000   1.0000   1.0000   1.0000   1.0000   1.0000   1.0000
     1.0000   1.0000   1.0000   1.0000   1.0000   1.0000   1.0000   1.0000
     1.0000   1.0000   1.0000   1.0000   1.0000   1.0000   1.0000   1.0000
     1.0000   1.0000   1.0000   1.0000   1.0000   1.0000   0.0000   0.0000
     0.0000   0.0000   0.0000   0.0000   0.0000   0.0000   0.0000   0.0000
     0.0000   0.0000   0.0000   0.0000   0.0000   0.0000   0.0000   0.0000
     0.0000   0.0000   0.0000   0.0000   0.0000   0.0000   0.0000   0.0000
     0.0000   0.0000   0.0000   0.0000

          k = 0.0139 0.3357-0.1059 ( 14924 PWs)   bands (ev):

   -36.6549 -36.6546 -36.6532 -36.6531 -36.6383 -36.6380 -36.6296 -36.6294
   -36.6252 -36.6248 -24.6669 -24.6639 -24.6589 -24.6586 -24.6485 -24.6465
   -24.6375 -24.6373 -24.6350 -24.6335 -11.8834 -11.0043  -8.1115  -7.2396
    -3.1993  -2.1721  -1.9768  -1.2781  -1.1675   0.0644   1.1674   1.5525
     1.6731   2.3175   2.7021   3.2367   4.7665   5.1635   6.0875   6.3849
     6.6198   6.6254   7.3178   7.6691   7.8612   7.9800   8.4044   8.6277
     9.0970   9.1421   9.6731   9.9928  10.3187  11.1255  11.3585  11.4549
    11.9318  12.0716  12.5877  12.6282

     occupation numbers 
     1.0000   1.0000   1.0000   1.0000   1.0000   1.0000   1.0000   1.0000
     1.0000   1.0000   1.0000   1.0000   1.0000   1.0000   1.0000   1.0000
     1.0000   1.0000   1.0000   1.0000   1.0000   1.0000   1.0000   1.0000
     1.0000   1.0000   1.0000   1.0000   1.0000   1.0375   0.0000   0.0000
     0.0000   0.0000   0.0000   0.0000   0.0000   0.0000   0.0000   0.0000
     0.0000   0.0000   0.0000   0.0000   0.0000   0.0000   0.0000   0.0000
     0.0000   0.0000   0.0000   0.0000   0.0000   0.0000   0.0000   0.0000
     0.0000   0.0000   0.0000   0.0000

          k = 0.0139 0.3626-0.1059 ( 14940 PWs)   bands (ev):

   -36.6549 -36.6546 -36.6532 -36.6531 -36.6382 -36.6380 -36.6296 -36.6294
   -36.6252 -36.6249 -24.6667 -24.6642 -24.6589 -24.6587 -24.6483 -24.6466
   -24.6375 -24.6374 -24.6349 -24.6336 -11.7869 -11.0369  -8.1456  -7.3999
    -3.1049  -2.1154  -1.9702  -1.1661  -1.1583   0.1269   1.0631   1.4344
     1.7505   2.1100   2.5164   3.0657   4.9022   5.3153   6.2157   6.4351
     6.7528   6.8947   7.1345   7.6068   7.8902   8.1016   8.4051   8.6747
     8.9808   9.1308   9.5891   9.8412  10.2613  11.1552  11.1662  11.2925
    11.9110  11.9132  12.7320  12.8320

     occupation numbers 
     1.0000   1.0000   1.0000   1.0000   1.0000   1.0000   1.0000   1.0000
     1.0000   1.0000   1.0000   1.0000   1.0000   1.0000   1.0000   1.0000
     1.0000   1.0000   1.0000   1.0000   1.0000   1.0000   1.0000   1.0000
     1.0000   1.0000   1.0000   1.0000   1.0000   0.9250   0.0000   0.0000
     0.0000   0.0000   0.0000   0.0000   0.0000   0.0000   0.0000   0.0000
     0.0000   0.0000   0.0000   0.0000   0.0000   0.0000   0.0000   0.0000
     0.0000   0.0000   0.0000   0.0000   0.0000   0.0000   0.0000   0.0000
     0.0000   0.0000   0.0000   0.0000

          k = 0.0139 0.3895-0.1059 ( 14940 PWs)   bands (ev):

   -36.6549 -36.6547 -36.6532 -36.6531 -36.6381 -36.6380 -36.6296 -36.6294
   -36.6252 -36.6249 -24.6664 -24.6644 -24.6589 -24.6588 -24.6480 -24.6467
   -24.6375 -24.6374 -24.6347 -24.6337 -11.6878 -11.0838  -8.1533  -7.5516
    -3.0015  -2.1794  -1.8717  -1.1746  -1.0210   0.1046   1.0424   1.3692
     1.8157   1.9356   2.3306   2.8949   5.0505   5.4780   6.2269   6.4575
     6.8388   6.9738   7.3008   7.5976   7.7483   8.2354   8.4840   8.5805
     9.0031   9.2150   9.5015   9.7911  10.1882  10.9006  10.9422  11.3204
    11.8045  11.8490  12.6446  12.8118

     occupation numbers 
     1.0000   1.0000   1.0000   1.0000   1.0000   1.0000   1.0000   1.0000
     1.0000   1.0000   1.0000   1.0000   1.0000   1.0000   1.0000   1.0000
     1.0000   1.0000   1.0000   1.0000   1.0000   1.0000   1.0000   1.0000
     1.0000   1.0000   1.0000   1.0000   1.0000   1.0375   0.0000   0.0000
     0.0000   0.0000   0.0000   0.0000   0.0000   0.0000   0.0000   0.0000
     0.0000   0.0000   0.0000   0.0000   0.0000   0.0000   0.0000   0.0000
     0.0000   0.0000   0.0000   0.0000   0.0000   0.0000   0.0000   0.0000
     0.0000   0.0000   0.0000   0.0000

          k = 0.0139 0.4163-0.1059 ( 14932 PWs)   bands (ev):

   -36.6549 -36.6547 -36.6532 -36.6531 -36.6381 -36.6379 -36.6296 -36.6295
   -36.6251 -36.6249 -24.6661 -24.6647 -24.6590 -24.6588 -24.6478 -24.6469
   -24.6376 -24.6374 -24.6346 -24.6339 -11.5877 -11.1444  -8.1342  -7.6921
    -2.8905  -2.2854  -1.7470  -1.2191  -0.8571   0.0019   1.0937   1.3682
     1.7040   1.9410   2.1701   2.7274   5.2099   5.6511   6.0905   6.5997
     6.6640   7.0752   7.5591   7.5646   7.7762   8.3423   8.4549   8.4925
     9.1179   9.2976   9.4013   9.9234  10.1059  10.4886  10.7337  11.4322
    11.7047  11.8108  12.4261  12.5500

     occupation numbers 
     1.0000   1.0000   1.0000   1.0000   1.0000   1.0000   1.0000   1.0000
     1.0000   1.0000   1.0000   1.0000   1.0000   1.0000   1.0000   1.0000
     1.0000   1.0000   1.0000   1.0000   1.0000   1.0000   1.0000   1.0000
     1.0000   1.0000   1.0000   1.0000   1.0000   1.0000   0.0000   0.0000
     0.0000   0.0000   0.0000   0.0000   0.0000   0.0000   0.0000   0.0000
[...]
     9.5109   9.8289   9.8748  10.1180  10.4652  10.5286  10.6481  10.7599
    11.4390  11.8258  12.0236  12.1563

     occupation numbers 
     1.0000   1.0000   1.0000   1.0000   1.0000   1.0000   1.0000   1.0000
     1.0000   1.0000   1.0000   1.0000   1.0000   1.0000   1.0000   1.0000
     1.0000   1.0000   1.0000   1.0000   1.0000   1.0000   1.0000   1.0000
     1.0000   1.0000   1.0000   1.0000   1.0000   1.0000   0.0000   0.0000
     0.0000   0.0000   0.0000   0.0000   0.0000   0.0000   0.0000   0.0000
     0.0000   0.0000   0.0000   0.0000   0.0000   0.0000   0.0000   0.0000
     0.0000   0.0000   0.0000   0.0000   0.0000   0.0000   0.0000   0.0000
     0.0000   0.0000   0.0000   0.0000

          k = 0.4861 0.1477-0.1059 ( 15006 PWs)   bands (ev):

   -36.6536 -36.6536 -36.6534 -36.6534 -36.6387 -36.6386 -36.6299 -36.6298
   -36.6244 -36.6243 -24.6643 -24.6641 -24.6596 -24.6595 -24.6481 -24.6479
   -24.6386 -24.6385 -24.6330 -24.6328 -11.1632 -11.0698  -8.0344  -7.9398
    -2.9740  -2.8779  -2.4300  -2.3785  -1.1457  -1.0036   1.6542   1.8479
     2.3701   2.4877   3.1056   3.2696   5.6378   5.7082   6.2929   6.4391
     6.7384   6.7891   7.2901   7.4522   7.9368   8.1081   9.0757   9.0982
     9.6102   9.9773  10.0742  10.2347  10.5033  10.5621  10.7383  10.7915
    11.5130  11.5757  11.8313  12.0158

     occupation numbers 
     1.0000   1.0000   1.0000   1.0000   1.0000   1.0000   1.0000   1.0000
     1.0000   1.0000   1.0000   1.0000   1.0000   1.0000   1.0000   1.0000
     1.0000   1.0000   1.0000   1.0000   1.0000   1.0000   1.0000   1.0000
     1.0000   1.0000   1.0000   1.0000   1.0000   1.0000   0.0000   0.0000
     0.0000   0.0000   0.0000   0.0000   0.0000   0.0000   0.0000   0.0000
     0.0000   0.0000   0.0000   0.0000   0.0000   0.0000   0.0000   0.0000
     0.0000   0.0000   0.0000   0.0000   0.0000   0.0000   0.0000   0.0000
     0.0000   0.0000   0.0000   0.0000

          k = 0.4861 0.1746-0.1059 ( 14996 PWs)   bands (ev):

   -36.6536 -36.6536 -36.6534 -36.6534 -36.6386 -36.6385 -36.6300 -36.6298
   -36.6244 -36.6243 -24.6643 -24.6641 -24.6597 -24.6596 -24.6479 -24.6478
   -24.6387 -24.6386 -24.6329 -24.6328 -11.1348 -11.0449  -7.9915  -7.9004
    -3.2029  -3.0658  -2.5263  -2.4332  -1.3477  -1.1979   1.9436   2.1433
     2.4638   2.5960   3.4139   3.5716   5.6130   5.6535   6.3498   6.4450
     6.7066   6.7516   7.3267   7.4836   7.9908   8.1672   8.9227   8.9679
     9.7031  10.0734  10.1607  10.3297  10.5480  10.5869  10.9424  10.9510
    11.3008  11.4970  11.6040  11.7640

     occupation numbers 
     1.0000   1.0000   1.0000   1.0000   1.0000   1.0000   1.0000   1.0000
     1.0000   1.0000   1.0000   1.0000   1.0000   1.0000   1.0000   1.0000
     1.0000   1.0000   1.0000   1.0000   1.0000   1.0000   1.0000   1.0000
     1.0000   1.0000   1.0000   1.0000   1.0000   1.0000   0.0000   0.0000
     0.0000   0.0000   0.0000   0.0000   0.0000   0.0000   0.0000   0.0000
     0.0000   0.0000   0.0000   0.0000   0.0000   0.0000   0.0000   0.0000
     0.0000   0.0000   0.0000   0.0000   0.0000   0.0000   0.0000   0.0000
     0.0000   0.0000   0.0000   0.0000

          k = 0.4861 0.2014-0.1059 ( 14994 PWs)   bands (ev):

   -36.6536 -36.6536 -36.6534 -36.6534 -36.6385 -36.6384 -36.6300 -36.6299
   -36.6244 -36.6243 -24.6643 -24.6641 -24.6598 -24.6597 -24.6478 -24.6476
   -24.6387 -24.6386 -24.6329 -24.6327 -11.1034 -11.0175  -7.9432  -7.8561
    -3.4359  -3.2854  -2.5986  -2.4892  -1.5264  -1.3775   2.1806   2.3583
     2.6306   2.7913   3.7036   3.8349   5.5895   5.6221   6.4150   6.4586
     6.7178   6.7635   7.3672   7.5126   8.0610   8.2370   8.7801   8.8312
     9.7993  10.1533  10.1928  10.3979  10.5188  10.5687  11.0552  11.0711
    11.2639  11.3103  11.3897  11.5473

     occupation numbers 
     1.0000   1.0000   1.0000   1.0000   1.0000   1.0000   1.0000   1.0000
     1.0000   1.0000   1.0000   1.0000   1.0000   1.0000   1.0000   1.0000
     1.0000   1.0000   1.0000   1.0000   1.0000   1.0000   1.0000   1.0000
     1.0000   1.0000   1.0000   1.0000   1.0000   1.0000   0.0000   0.0000
     0.0000   0.0000   0.0000   0.0000   0.0000   0.0000   0.0000   0.0000
     0.0000   0.0000   0.0000   0.0000   0.0000   0.0000   0.0000   0.0000
     0.0000   0.0000   0.0000   0.0000   0.0000   0.0000   0.0000   0.0000
     0.0000   0.0000   0.0000   0.0000

          k = 0.4861 0.2283-0.1059 ( 14982 PWs)   bands (ev):

   -36.6536 -36.6536 -36.6535 -36.6534 -36.6385 -36.6384 -36.6300 -36.6299
   -36.6244 -36.6243 -24.6643 -24.6641 -24.6598 -24.6597 -24.6477 -24.6475
   -24.6388 -24.6387 -24.6329 -24.6327 -11.0694 -10.9884  -7.8903  -7.8081
    -3.6612  -3.5091  -2.6784  -2.5622  -1.6689  -1.5271   2.3213   2.4700
     2.9027   3.0904   3.9467   4.0315   5.5960   5.6495   6.4865   6.4945
     6.7630   6.8016   7.4067   7.5358   8.1447   8.3120   8.6656   8.7114
     9.8911  10.2064  10.2154  10.3848  10.4329  10.5060  10.9242  10.9857
    11.1107  11.2522  11.4437  11.5670

     occupation numbers 
     1.0000   1.0000   1.0000   1.0000   1.0000   1.0000   1.0000   1.0000
     1.0000   1.0000   1.0000   1.0000   1.0000   1.0000   1.0000   1.0000
     1.0000   1.0000   1.0000   1.0000   1.0000   1.0000   1.0000   1.0000
     1.0000   1.0000   1.0000   1.0000   1.0000   1.0000   0.0000   0.0000
     0.0000   0.0000   0.0000   0.0000   0.0000   0.0000   0.0000   0.0000
     0.0000   0.0000   0.0000   0.0000   0.0000   0.0000   0.0000   0.0000
     0.0000   0.0000   0.0000   0.0000   0.0000   0.0000   0.0000   0.0000
     0.0000   0.0000   0.0000   0.0000

          k = 0.4861 0.2552-0.1059 ( 14992 PWs)   bands (ev):

   -36.6537 -36.6536 -36.6535 -36.6534 -36.6384 -36.6383 -36.6300 -36.6299
   -36.6244 -36.6243 -24.6643 -24.6641 -24.6599 -24.6598 -24.6475 -24.6474
   -24.6388 -24.6387 -24.6328 -24.6327 -11.0339 -10.9585  -7.8341  -7.7575
    -3.8730  -3.7250  -2.7780  -2.6592  -1.7691  -1.6386   2.4056   2.5360
     3.2292   3.4250   4.1195   4.1445   5.6656   5.7600   6.5537   6.5605
     6.8345   6.8488   7.4412   7.5533   8.2396   8.3782   8.5932   8.6382
     9.9155  10.1735  10.1767  10.2790  10.3336  10.5406  10.7650  10.8820
    10.9813  11.1006  11.5481  11.7654

     occupation numbers 
     1.0000   1.0000   1.0000   1.0000   1.0000   1.0000   1.0000   1.0000
     1.0000   1.0000   1.0000   1.0000   1.0000   1.0000   1.0000   1.0000
     1.0000   1.0000   1.0000   1.0000   1.0000   1.0000   1.0000   1.0000
     1.0000   1.0000   1.0000   1.0000   1.0000   1.0000   0.0000   0.0000
     0.0000   0.0000   0.0000   0.0000   0.0000   0.0000   0.0000   0.0000
     0.0000   0.0000   0.0000   0.0000   0.0000   0.0000   0.0000   0.0000
     0.0000   0.0000   0.0000   0.0000   0.0000   0.0000   0.0000   0.0000
     0.0000   0.0000   0.0000   0.0000

          k = 0.4861 0.2820-0.1059 ( 14974 PWs)   bands (ev):

   -36.6537 -36.6536 -36.6535 -36.6534 -36.6383 -36.6382 -36.6300 -36.6299
   -36.6244 -36.6243 -24.6643 -24.6641 -24.6600 -24.6599 -24.6474 -24.6472
   -24.6389 -24.6388 -24.6328 -24.6327 -10.9978 -10.9286  -7.7757  -7.7055
    -4.0676  -3.9272  -2.8960  -2.7781  -1.8296  -1.7127   2.4683   2.5845
     3.5595   3.7461   4.1905   4.2254   5.8124   5.9455   6.6276   6.6307
     6.8965   6.9272   7.4704   7.5729   8.3433   8.4121   8.5690   8.6466
     9.7553   9.9616  10.1532  10.1740  10.3382  10.5511  10.7068  10.7306
    10.9292  11.0858  11.5890  11.6970

     occupation numbers 
     1.0000   1.0000   1.0000   1.0000   1.0000   1.0000   1.0000   1.0000
     1.0000   1.0000   1.0000   1.0000   1.0000   1.0000   1.0000   1.0000
     1.0000   1.0000   1.0000   1.0000   1.0000   1.0000   1.0000   1.0000
     1.0000   1.0000   1.0000   1.0000   1.0000   1.0000   0.0000   0.0000
     0.0000   0.0000   0.0000   0.0000   0.0000   0.0000   0.0000   0.0000
     0.0000   0.0000   0.0000   0.0000   0.0000   0.0000   0.0000   0.0000
     0.0000   0.0000   0.0000   0.0000   0.0000   0.0000   0.0000   0.0000
     0.0000   0.0000   0.0000   0.0000

          k = 0.4861 0.3089-0.1059 ( 14966 PWs)   bands (ev):

   -36.6537 -36.6537 -36.6535 -36.6534 -36.6382 -36.6381 -36.6300 -36.6299
   -36.6244 -36.6243 -24.6643 -24.6642 -24.6601 -24.6600 -24.6472 -24.6471
   -24.6389 -24.6389 -24.6328 -24.6326 -10.9620 -10.8999  -7.7168  -7.6539
    -4.2422  -4.1124  -3.0229  -2.9099  -1.8596  -1.7569   2.5201   2.6227
     3.8421   3.9831   4.2310   4.3370   6.0185   6.1734   6.6893   6.6978
     6.9495   7.0379   7.5013   7.6091   8.4300   8.4509   8.5909   8.7205
     9.5269   9.7207   9.9361  10.0711  10.4195  10.5552  10.6094  10.7185
    10.9601  11.0660  11.4739  11.4845

     occupation numbers 
     1.0000   1.0000   1.0000   1.0000   1.0000   1.0000   1.0000   1.0000
     1.0000   1.0000   1.0000   1.0000   1.0000   1.0000   1.0000   1.0000
     1.0000   1.0000   1.0000   1.0000   1.0000   1.0000   1.0000   1.0000
     1.0000   1.0000   1.0000   1.0000   1.0000   1.0000   0.0000   0.0000
     0.0000   0.0000   0.0000   0.0000   0.0000   0.0000   0.0000   0.0000
     0.0000   0.0000   0.0000   0.0000   0.0000   0.0000   0.0000   0.0000
     0.0000   0.0000   0.0000   0.0000   0.0000   0.0000   0.0000   0.0000
     0.0000   0.0000   0.0000   0.0000

          k = 0.4861 0.3357-0.1059 ( 14962 PWs)   bands (ev):

   -36.6537 -36.6537 -36.6535 -36.6534 -36.6382 -36.6381 -36.6300 -36.6299
   -36.6244 -36.6243 -24.6643 -24.6642 -24.6601 -24.6600 -24.6471 -24.6470
   -24.6390 -24.6389 -24.6327 -24.6326 -10.9277 -10.8735  -7.6594  -7.6045
    -4.3946  -4.2782  -3.1477  -3.0437  -1.8690  -1.7809   2.5639   2.6525
     3.9698   4.0548   4.3889   4.5528   6.2514   6.4071   6.7328   6.7383
     7.0306   7.1632   7.5478   7.6732   8.4659   8.5529   8.6508   8.8039
     9.3172   9.4876   9.6983   9.8711  10.4838  10.4941  10.5775  10.6974
    11.0180  11.0588  11.2906  11.3267

     occupation numbers 
     1.0000   1.0000   1.0000   1.0000   1.0000   1.0000   1.0000   1.0000
     1.0000   1.0000   1.0000   1.0000   1.0000   1.0000   1.0000   1.0000
     1.0000   1.0000   1.0000   1.0000   1.0000   1.0000   1.0000   1.0000
     1.0000   1.0000   1.0000   1.0000   1.0000   1.0000   0.0000   0.0000
     0.0000   0.0000   0.0000   0.0000   0.0000   0.0000   0.0000   0.0000
     0.0000   0.0000   0.0000   0.0000   0.0000   0.0000   0.0000   0.0000
     0.0000   0.0000   0.0000   0.0000   0.0000   0.0000   0.0000   0.0000
     0.0000   0.0000   0.0000   0.0000

          k = 0.4861 0.3626-0.1059 ( 14954 PWs)   bands (ev):

   -36.6537 -36.6537 -36.6535 -36.6534 -36.6381 -36.6380 -36.6301 -36.6300
   -36.6244 -36.6243 -24.6643 -24.6642 -24.6602 -24.6601 -24.6470 -24.6469
   -24.6390 -24.6389 -24.6327 -24.6326 -10.8960 -10.8504  -7.6054  -7.5594
    -4.5227  -4.4224  -3.2612  -3.1699  -1.8660  -1.7929   2.6004   2.6740
     3.9734   4.0427   4.6400   4.8019   6.4798   6.5975   6.7500   6.7867
     7.1483   7.2976   7.6215   7.7661   8.5213   8.6364   8.7267   8.8155
     9.2098   9.2896   9.4722   9.6494  10.3458  10.4280  10.5672  10.6567
    10.9820  11.0896  11.2372  11.2625

     occupation numbers 
     1.0000   1.0000   1.0000   1.0000   1.0000   1.0000   1.0000   1.0000
     1.0000   1.0000   1.0000   1.0000   1.0000   1.0000   1.0000   1.0000
     1.0000   1.0000   1.0000   1.0000   1.0000   1.0000   1.0000   1.0000
     1.0000   1.0000   1.0000   1.0000   1.0000   1.0000   0.0000   0.0000
     0.0000   0.0000   0.0000   0.0000   0.0000   0.0000   0.0000   0.0000
     0.0000   0.0000   0.0000   0.0000   0.0000   0.0000   0.0000   0.0000
     0.0000   0.0000   0.0000   0.0000   0.0000   0.0000   0.0000   0.0000
     0.0000   0.0000   0.0000   0.0000

          k = 0.4861 0.3895-0.1059 ( 14956 PWs)   bands (ev):

   -36.6537 -36.6537 -36.6535 -36.6534 -36.6381 -36.6380 -36.6301 -36.6300
   -36.6244 -36.6243 -24.6643 -24.6642 -24.6602 -24.6601 -24.6469 -24.6468
   -24.6391 -24.6390 -24.6327 -24.6326 -10.8679 -10.8316  -7.5572  -7.5207
    -4.6249  -4.5433  -3.3565  -3.2814  -1.8564  -1.7987   2.6296   2.6876
     3.9525   4.0116   4.8831   5.0208   6.6484   6.6676   6.7926   6.9219
     7.2857   7.4313   7.7236   7.8810   8.5655   8.6757   8.7151   8.7617
     9.1826   9.2644   9.2879   9.4402  10.1928  10.2893  10.4502  10.5524
    10.9702  10.9859  11.3345  11.3832

     occupation numbers 
     1.0000   1.0000   1.0000   1.0000   1.0000   1.0000   1.0000   1.0000
     1.0000   1.0000   1.0000   1.0000   1.0000   1.0000   1.0000   1.0000
     1.0000   1.0000   1.0000   1.0000   1.0000   1.0000   1.0000   1.0000
     1.0000   1.0000   1.0000   1.0000   1.0000   1.0000   0.0000   0.0000
     0.0000   0.0000   0.0000   0.0000   0.0000   0.0000   0.0000   0.0000
     0.0000   0.0000   0.0000   0.0000   0.0000   0.0000   0.0000   0.0000
     0.0000   0.0000   0.0000   0.0000   0.0000   0.0000   0.0000   0.0000
     0.0000   0.0000   0.0000   0.0000

          k = 0.4861 0.4163-0.1059 ( 14956 PWs)   bands (ev):

   -36.6537 -36.6537 -36.6535 -36.6534 -36.6380 -36.6379 -36.6301 -36.6300
   -36.6244 -36.6243 -24.6643 -24.6642 -24.6603 -24.6602 -24.6468 -24.6467
   -24.6391 -24.6390 -24.6326 -24.6325 -10.8444 -10.8181  -7.5171  -7.4907
    -4.6996  -4.6392  -3.4288  -3.3728  -1.8441  -1.8024   2.6522   2.6939
     3.9343   3.9800   5.0841   5.1872   6.6770   6.6843   6.9449   7.0793
     7.4230   7.5508   7.8462   8.0061   8.4846   8.6072   8.6927   8.7276
     9.1447   9.2512   9.2591   9.4037  10.0541  10.1325  10.2780  10.3949
    10.8723  10.9697  11.4265  11.4611

     occupation numbers 
     1.0000   1.0000   1.0000   1.0000   1.0000   1.0000   1.0000   1.0000
     1.0000   1.0000   1.0000   1.0000   1.0000   1.0000   1.0000   1.0000
     1.0000   1.0000   1.0000   1.0000   1.0000   1.0000   1.0000   1.0000
     1.0000   1.0000   1.0000   1.0000   1.0000   1.0000   0.0000   0.0000
     0.0000   0.0000   0.0000   0.0000   0.0000   0.0000   0.0000   0.0000
     0.0000   0.0000   0.0000   0.0000   0.0000   0.0000   0.0000   0.0000
     0.0000   0.0000   0.0000   0.0000   0.0000   0.0000   0.0000   0.0000
     0.0000   0.0000   0.0000   0.0000

          k = 0.4861 0.4432-0.1059 ( 14946 PWs)   bands (ev):

   -36.6537 -36.6537 -36.6535 -36.6534 -36.6380 -36.6379 -36.6301 -36.6300
   -36.6244 -36.6243 -24.6643 -24.6642 -24.6603 -24.6602 -24.6468 -24.6467
   -24.6391 -24.6390 -24.6326 -24.6325 -10.8264 -10.8104  -7.4872  -7.4712
    -4.7457  -4.7085  -3.4746  -3.4400  -1.8316  -1.8064   2.6692   2.6943
     3.9251   3.9541   5.2292   5.2921   6.6799   6.6879   7.1007   7.1973
     7.5431   7.6381   7.9748   8.1165   8.3716   8.4887   8.6295   8.6852
     9.1317   9.1490   9.3748   9.5352   9.9554   9.9923  10.1097  10.2171
    10.8159  10.9098  11.4508  11.5018

     occupation numbers 
     1.0000   1.0000   1.0000   1.0000   1.0000   1.0000   1.0000   1.0000
     1.0000   1.0000   1.0000   1.0000   1.0000   1.0000   1.0000   1.0000
     1.0000   1.0000   1.0000   1.0000   1.0000   1.0000   1.0000   1.0000
     1.0000   1.0000   1.0000   1.0000   1.0000   1.0000   0.0000   0.0000
     0.0000   0.0000   0.0000   0.0000   0.0000   0.0000   0.0000   0.0000
     0.0000   0.0000   0.0000   0.0000   0.0000   0.0000   0.0000   0.0000
     0.0000   0.0000   0.0000   0.0000   0.0000   0.0000   0.0000   0.0000
     0.0000   0.0000   0.0000   0.0000

          k = 0.4861 0.4700-0.1059 ( 14952 PWs)   bands (ev):

   -36.6537 -36.6537 -36.6535 -36.6534 -36.6380 -36.6379 -36.6301 -36.6300
   -36.6244 -36.6243 -24.6643 -24.6642 -24.6603 -24.6602 -24.6467 -24.6466
   -24.6391 -24.6391 -24.6326 -24.6325 -10.8145 -10.8092  -7.4691  -7.4638
    -4.7625  -4.7499  -3.4921  -3.4804  -1.8207  -1.8123   2.6815   2.6899
     3.9258   3.9357   5.3127   5.3336   6.6843   6.6877   7.2105   7.2464
     7.6313   7.6690   8.0851   8.1489   8.3437   8.4054   8.5561   8.6121
     9.1304   9.1378   9.5105   9.5962   9.9254   9.9407   9.9818  10.0476
    10.8068  10.8435  11.4911  11.5135

     occupation numbers 
     1.0000   1.0000   1.0000   1.0000   1.0000   1.0000   1.0000   1.0000
     1.0000   1.0000   1.0000   1.0000   1.0000   1.0000   1.0000   1.0000
     1.0000   1.0000   1.0000   1.0000   1.0000   1.0000   1.0000   1.0000
     1.0000   1.0000   1.0000   1.0000   1.0000   1.0000   0.0000   0.0000
     0.0000   0.0000   0.0000   0.0000   0.0000   0.0000   0.0000   0.0000
     0.0000   0.0000   0.0000   0.0000   0.0000   0.0000   0.0000   0.0000
     0.0000   0.0000   0.0000   0.0000   0.0000   0.0000   0.0000   0.0000
     0.0000   0.0000   0.0000   0.0000

     the Fermi energy is     0.1269 ev

!    total energy              =    -632.72087911 Ry
     estimated scf accuracy    <          3.8E-10 Ry

     The total energy is the sum of the following terms:
     one-electron contribution =   -2665.03976721 Ry
     hartree contribution      =    1330.29856647 Ry
     xc contribution           =     -71.68931018 Ry
     ewald contribution        =     773.70963180 Ry

     convergence has been achieved in  10 iterations

     Writing output data file ./work/GeTe-mono.save/
 
     init_run     :     14.72s CPU     16.34s WALL (       1 calls)
     electrons    :    664.93s CPU    704.78s WALL (       1 calls)

     Called by init_run:
     wfcinit      :     13.87s CPU     15.41s WALL (       1 calls)
     wfcinit:atom :      0.02s CPU      0.02s WALL (     324 calls)
     wfcinit:wfcr :     12.56s CPU     14.10s WALL (     324 calls)
     potinit      :      0.39s CPU      0.41s WALL (       1 calls)
     hinit0       :      0.24s CPU      0.24s WALL (       1 calls)

     Called by electrons:
     c_bands      :    594.54s CPU    628.23s WALL (      11 calls)
     sum_band     :     69.65s CPU     75.69s WALL (      11 calls)
     v_of_rho     :      0.63s CPU      0.72s WALL (      11 calls)
     v_h          :      0.04s CPU      0.04s WALL (      11 calls)
     v_xc         :      0.59s CPU      0.68s WALL (      11 calls)
     mix_rho      :      0.08s CPU      0.08s WALL (      11 calls)

     Called by c_bands:
     init_us_2    :      4.94s CPU      5.15s WALL (    7452 calls)
     cegterg      :    559.71s CPU    593.22s WALL (    3564 calls)

     Called by sum_band:
     sum_band:wei :      6.45s CPU      6.45s WALL (      11 calls)
     sum_band:loo :     63.04s CPU     69.07s WALL (      11 calls)
     sum_band:buf :      0.73s CPU      0.80s WALL (    3564 calls)
     sum_band:ini :      2.29s CPU      2.47s WALL (    3564 calls)

     Called by *egterg:
     cdiaghg      :    110.11s CPU    111.30s WALL (   19610 calls)
     cegterg:over :     38.96s CPU     40.38s WALL (   16370 calls)
     cegterg:upda :     15.74s CPU     15.84s WALL (   16370 calls)
     cegterg:last :     22.66s CPU     22.74s WALL (    9076 calls)
     h_psi        :    358.37s CPU    390.23s WALL (   20258 calls)
     g_psi        :      1.67s CPU      1.69s WALL (   16370 calls)

     Called by h_psi:
     h_psi:calbec :     17.99s CPU     19.38s WALL (   20258 calls)
     vloc_psi     :    325.45s CPU    355.20s WALL (   20258 calls)
     add_vuspsi   :     13.03s CPU     13.73s WALL (   20258 calls)

     General routines
     calbec       :     17.91s CPU     19.31s WALL (   20258 calls)
     fft          :      0.41s CPU      0.49s WALL (     130 calls)
     ffts         :      0.01s CPU      0.01s WALL (      22 calls)
     fftw         :    351.19s CPU    383.81s WALL ( 1503326 calls)
     interpolate  :      0.04s CPU      0.04s WALL (      11 calls)
 
     Parallel routines
     fft_scatt_xy :     40.52s CPU     44.11s WALL ( 1503478 calls)
     fft_scatt_yz :    152.06s CPU    167.28s WALL ( 1503478 calls)
 
     PWSCF        :  11m24.42s CPU  12m12.04s WALL

 
   This run was terminated on:   9:46:36  18Feb2021            

=------------------------------------------------------------------------------=
   JOB DONE.
=------------------------------------------------------------------------------=
